LAMMPS data file via write_data, version 15 Sep 2022, timestep = 507

23952 atoms
2 atom types

0 21.824953608198122 xlo xhi
0 151.2077140889313 ylo yhi
-4.0802171831395615 75.93192010117176 zlo zhi

Masses

1 180.948
2 12.011

Atoms # atomic

191 1 1.78349513532534 0.006363145387011879 -2.303286449105611 0 0 0
6321 2 0.8967125280076336 1.5734962649781832 -0.8599941048736464 0 0 0
6329 2 2.707664192642919 1.5719363254488874 -3.367670630016294 0 0 0
6149 2 9.074612743044968 15.773369465968676 14.501328553601947 0 0 0
178 1 4.511650940403637 1.572790042239308 -2.3038093780280464 0 0 0
6291 2 6.352950929821024 1.5734962650352728 -0.8599941043618364 0 0 0
6327 2 3.6247986619132475 0.0063631651104011245 -0.8594688163143176 0 0 0
6328 2 5.435749021937327 0.0063631359066223655 -3.3671476040637285 0 0 0
132 1 9.967889342811224 1.5727900420140974 -2.303809378213784 0 0 0
180 1 7.239733536935904 0.006363145291595094 -2.303286448682182 0 0 0
6290 2 9.081037063418838 0.006363165151291485 -0.8594688164196319 0 0 0
6294 2 8.163902594983291 1.5719363252641596 -3.367670630190228 0 0 0
192 1 1.7836415507091345 3.139224906124107 -2.305378122443176 0 0 0
6320 2 0.8969769326660826 4.70778642244984 -0.8641962266743384 0 0 0
6325 2 2.707939017408266 4.703112195895051 -3.3718544766150544 0 0 0
18 1 7.256210800344001 15.765861479895932 13.21651059130615 0 0 0
177 1 4.511943785528384 4.705675889259666 -2.307992500610397 0 0 0
6285 2 6.3532153348344735 4.707786422915039 -0.8641962270599615 0 0 0
6319 2 3.624930912546181 3.140635317807029 -0.8615699146423625 0 0 0
6330 2 5.435886476786881 3.1375168654402845 -3.3692396352416347 0 0 0
131 1 9.968182187341895 4.705675889395452 -2.30799250066525 0 0 0
176 1 7.239879952779416 3.139224906491543 -2.305378122459714 0 0 0
6292 2 9.081169314613792 3.1406353181319733 -0.8615699152311734 0 0 0
6293 2 8.16417741925277 4.703112196261805 -3.3718544757496223 0 0 0
188 1 1.7840808410128866 6.272151163519282 -2.311652157740322 0 0 0
6310 2 0.8975048037457892 7.842150805443647 -0.8725998298662687 0 0 0
6324 2 2.708487964834094 7.834378639369561 -3.380220222439228 0 0 0
3 1 9.98501812321916 17.341581685888762 13.205610502552211 0 0 0
170 1 4.5125295574232345 7.838659525420455 -2.3163564278626434 0 0 0
6284 2 6.3537432052845215 7.842150805380098 -0.872599829753475 0 0 0
6322 2 3.625327236549126 6.27495597334904 -0.8678729358682943 0 0 0
6323 2 5.436298503755961 6.268730145763835 -3.375514847563446 0 0 0
130 1 9.968767959445348 7.838659525605107 -2.3163564279368445 0 0 0
179 1 7.2403192435102035 6.272151162977472 -2.311652157982112 0 0 0
6283 2 9.081565638069335 6.274955972083622 -0.8678729357965229 0 0 0
6288 2 8.164726366974243 7.834378639981793 -3.3802202220910256 0 0 0
189 1 1.7848133698368776 9.40520989246987 -2.3221044666206874 0 0 0
6309 2 0.8982938571065484 10.976646877223518 -0.8852023292730691 0 0 0
6314 2 2.70930981268616 10.965801546810626 -3.3927617719584386 0 0 0
1 1 8.165177425385018 17.358207235969296 15.778318383188546 0 0 0
169 1 4.513410000037516 10.971812946745818 -2.3288942604492378 0 0 0
6271 2 6.3545322596489076 10.976646877330287 -0.8852023303542167 0 0 0
6308 2 3.625986076278769 9.40937835778046 -0.8783764862197458 0 0 0
6326 2 5.436983913270183 9.400066362968666 -3.3859695387359885 0 0 0
123 1 9.969648401815542 10.971812946690134 -2.3288942602793625 0 0 0
168 1 7.241051772369968 9.405209892602949 -2.3221044666544732 0 0 0
6286 2 9.082224478066733 9.409378358954514 -0.8783764866404079 0 0 0
6287 2 8.165548214722703 10.965801546720945 -3.3927617715044938 0 0 0
184 1 1.7858455164133904 12.538479132029552 -2.33672447348162 0 0 0
6302 2 0.8993390265761293 14.111345475250529 -0.9019996357874631 0 0 0
6313 2 2.710408647598375 14.09744791430804 -3.409467129342373 0 0 0
6169 2 3.6183743412807323 15.773369467276634 14.501328551797165 0 0 0
156 1 4.514604762423287 14.105225737574829 -2.3455915366949314 0 0 0
6270 2 6.355577428512434 14.111345475564626 -0.9019996362998002 0 0 0
6311 2 3.6269042281269432 12.543965584606067 -0.8930768313697113 0 0 0
6312 2 5.437942603859664 12.531592964245034 -3.400594714493602 0 0 0
122 1 9.97084316399525 14.105225737374859 -2.3455915363913995 0 0 0
171 1 7.242083918444911 12.538479131815201 -2.336724473214185 0 0 0
6269 2 9.083142630529139 12.543965584301285 -0.8930768316477862 0 0 0
6274 2 8.166647050142934 14.097447914131 -3.4094671295233794 0 0 0
185 1 1.7872338214585377 15.67206558514961 -2.3554822348361477 0 0 0
6301 2 0.9006197355302954 17.24635394392787 -0.9230098970237424 0 0 0
6303 2 2.7118287652537405 17.22936339825388 -3.4303304941073316 0 0 0
6145 2 6.34713969617926 17.349794565255323 14.490525738756153 0 0 0
155 1 4.516267956245762 17.239037964334003 -2.3664449522574538 0 0 0
6253 2 6.35685813665018 17.246353943230744 -0.9230098955973771 0 0 0
6300 2 3.6280720052102082 15.6788006992347 -0.9119739331218477 0 0 0
6315 2 5.439194694626507 15.663370833349838 -3.419379313307703 0 0 0
107 1 9.972506358438915 17.239037964712555 -2.366444952469384 0 0 0
154 1 7.243472223018705 15.672065584880427 -2.3554822342540795 0 0 0
6272 2 9.08431040700004 15.67880069838808 -0.9119739321668018 0 0 0
6273 2 8.168067168109449 17.229363398529106 -3.4303304951072193 0 0 0
162 1 0.8928150103243102 1.5759945984518948 2.961929418242967 0 0 0
174 1 2.711562552079422 1.5743435338556253 0.36304204034325976 0 0 0
19 1 4.528779721033706 17.341581685655 13.205610502874158 0 0 0
6317 2 1.8038637375432938 0.006363190346696627 1.6957434023747389 0 0 0
126 1 6.349053412753393 1.5759945980107237 2.961929417765872 0 0 0
172 1 3.620899316418877 0.0063632032961030765 2.9624566995465553 0 0 0
173 1 5.439647463582136 0.0063631788368671525 0.36356762892631395 0 0 0
6281 2 4.532017049936598 1.5751555189046043 1.695216563146295 0 0 0
125 1 9.077137718226453 0.006363203622527756 2.9624566998773054 0 0 0
129 1 8.167800953883944 1.5743435340398357 0.36304204030886217 0 0 0
6228 2 9.988255452133256 1.5751555191655426 1.695216563933255 0 0 0
6289 2 7.260102139432749 0.006363191723605439 1.69574340265661 0 0 0
161 1 0.8930943679765575 4.71527439808399 2.9577108911009957 0 0 0
166 1 2.711836876993799 4.71032816453909 0.35883745783734633 0 0 0
17 1 5.436445837806108 15.781062651458688 15.789052558353399 0 0 0
6318 2 1.8040002052217012 3.1439525450994665 1.6936360366292025 0 0 0
118 1 6.349332770142032 4.715274398141762 2.957710891421046 0 0 0
160 1 3.6210389294403567 3.1456302077487996 2.960347555810902 0 0 0
175 1 5.439784629757369 3.1423298342659858 0.36146531427433704 0 0 0
6280 2 4.5322900250433795 4.71275910420485 1.6910016782019077 0 0 0
127 1 9.077277331545504 3.145630207741561 2.9603475559093324 0 0 0
128 1 8.168075278968344 4.710328164706368 0.35883745782465665 0 0 0
6227 2 9.988528427571632 4.712759104502876 1.6910016781270683 0 0 0
6279 2 7.260238607432914 3.1439525448289953 1.6936360361370117 0 0 0
148 1 0.8936541984200993 7.854607724499389 2.9492715142380574 0 0 0
165 1 2.7123853459613128 7.846386900783588 0.3504286800584167 0 0 0
6170 2 0.8909012951198856 17.349794566343025 14.490525737818094 0 0 0
6306 2 1.804409735533208 6.2815803304161495 1.6873132575815943 0 0 0
117 1 6.349892600392022 7.8546077245880666 2.949271514231327 0 0 0
163 1 3.6214583116968075 6.284931843816612 2.9540190518566707 0 0 0
164 1 5.4401960675484995 6.278344900282435 0.35515852761465794 0 0 0
6267 2 4.532836166428782 7.850421840530344 1.6825704695674764 0 0 0
116 1 9.077696713818142 6.2849318437637445 2.954019051995745 0 0 0
121 1 8.168623747957827 7.846386900864671 0.35042868034166585 0 0 0
6226 2 9.989074568315012 7.850421840630313 1.6825704700661646 0 0 0
6282 2 7.260648137781651 6.281580330743563 1.687313256988055 0 0 0
147 1 0.8944965291684577 10.994039651275715 2.9366061228256366 0 0 0
152 1 2.713207772592906 10.982578284129868 0.3378174125253058 0 0 0
65 1 1.7999723986095055 15.765861480365691 13.216510590845319 0 0 0
6307 2 1.8050924871591725 9.419289932478481 1.6767729002005631 0 0 0
103 1 6.3507349314753005 10.99403965156133 2.936606122810275 0 0 0
146 1 3.622159109998755 9.42430798120735 2.943467548699776 0 0 0
167 1 5.440881506265032 9.414461781176305 0.34464817976619205 0 0 0
6266 2 4.533655404613143 10.988191880482674 1.6699199070073847 0 0 0
119 1 9.078397512264335 9.424307981379048 2.943467548544781 0 0 0
120 1 8.169446174675912 10.98257828396826 0.33781741247625796 0 0 0
6219 2 9.989893806478998 10.98819188000722 1.6699199070572506 0 0 0
6265 2 7.261330889397714 9.419289932043927 1.6767729006658847 0 0 0
140 1 0.8956229704115443 14.133632822539017 2.9197023901952424 0 0 0
151 1 2.714306539940116 14.118980837876334 0.32100599279395214 0 0 0
13 1 2.708939023508388 17.35820723647347 15.778318382663743 0 0 0
6298 2 1.8060477818307905 12.55713621922081 1.662010387673048 0 0 0
102 1 6.351861372374766 14.133632822358772 2.9197023904227657 0 0 0
149 1 3.623143523243748 12.563811149445858 2.9286856033645714 0 0 0
150 1 5.441841212581888 12.55074698947087 0.3299367416274881 0 0 0
6252 2 4.534745601487886 14.126133399113353 1.6530421545275717 0 0 0
101 1 9.079381925062545 12.56381114960263 2.928685603564257 0 0 0
106 1 8.17054494201991 14.11898083818879 0.3210059925141313 0 0 0
6218 2 9.990984004084947 14.126133399968003 1.6530421540181832 0 0 0
6268 2 7.262286183149901 12.557136218576817 1.6620103884667452 0 0 0
139 1 0.8970288076419765 17.273468647047963 2.8985330111843894 0 0 0
141 1 2.7156831569985638 17.25571955866194 0.29996027975134365 0 0 0
6146 2 9.073527215460368 12.62029426519077 14.519855716502402 0 0 0
6299 2 1.8072701825909878 15.695196171953345 1.6430112517843554 0 0 0
85 1 6.35326720958072 17.273468647473482 2.89853301084175 0 0 0
138 1 3.624410533256334 15.703515534896958 2.909652181791372 0 0 0
153 1 5.443079627927784 15.687299334447074 0.31101800217159503 0 0 0
6251 2 4.536096406778325 17.264337835456214 1.6319160579546335 0 0 0
104 1 9.080648935487076 15.703515535000914 2.9096521818969916 0 0 0
105 1 8.171921558479937 17.25571955812425 0.2999602799652137 0 0 0
6203 2 9.992334807790208 17.264337834550627 1.6319160597066746 0 0 0
6250 2 7.263508584752902 15.69519617362802 1.6430112510742516 0 0 0
158 1 1.8006015364565655 0.006363227890464729 5.54492380824723 0 0 0
6277 2 2.7111902295582895 1.5768014293082495 4.263001532810793 0 0 0
29 1 7.255052269173483 12.614232549854117 13.23519608171611 0 0 0
114 1 4.5287559905728365 1.577626955484673 5.5443962055902745 0 0 0
6276 2 5.4392745858196765 0.0063632155276138 4.263528957774728 0 0 0
60 1 9.984994392575555 1.5776269554069422 5.54439620538862 0 0 0
124 1 7.256839938713493 0.006363227917236294 5.54492380775798 0 0 0
6225 2 8.167428631922427 1.5768014276652935 4.263001532276861 0 0 0
159 1 1.8007426406098523 3.148892893509756 5.542813300410556 0 0 0
6263 2 2.711469343140938 4.717690130296679 4.258781584529877 0 0 0
6 1 9.983715233876689 14.190075188556747 13.226372817259728 0 0 0
113 1 4.529038516762809 4.720163340351289 5.540174663561423 0 0 0
6278 2 5.439414032158864 3.1472426802400335 4.261419184585214 0 0 0
59 1 9.985276918609449 4.720163340635144 5.540174663317965 0 0 0
112 1 7.256981042475409 3.1488928935454217 5.542813300489839 0 0 0
6224 2 8.167707745304265 4.7176901312601265 4.258781584584871 0 0 0
144 1 1.8011672132229992 6.291440848569751 5.536479560210994 0 0 0
6262 2 2.7120291670708374 7.85861764603451 4.250338134826994 0 0 0
2 1 8.164019896233949 14.203824928461238 15.798768764192543 0 0 0
99 1 4.529606050129834 7.862728309140658 5.531726928483963 0 0 0
6261 2 5.439833214819984 6.288147187470747 4.255088171189334 0 0 0
58 1 9.985844452016444 7.862728308895716 5.531726928427786 0 0 0
115 1 7.25740561535243 6.291440848650399 5.53647956012599 0 0 0
6217 2 8.168267569099308 7.858617645967293 4.250338134857645 0 0 0
145 1 1.8018788037016034 9.434029092084147 5.52591533828181 0 0 0
6248 2 2.7128723259334913 10.999616851654428 4.237663431547241 0 0 0
6176 2 3.6172888132230696 12.620294264350747 14.51985571785159 0 0 0
98 1 4.53046287276675 11.005347162453832 5.5190429243071355 0 0 0
6264 2 5.440534361570184 9.42910585211966 4.244530371797697 0 0 0
51 1 9.986701274596708 11.005347162428414 5.519042924325545 0 0 0
97 1 7.258117205604984 9.434029092428904 5.525915338315399 0 0 0
6216 2 8.169110727800128 10.999616851513718 4.23766343120736 0 0 0
136 1 1.8028818949386618 12.576687109469157 5.511107213297486 0 0 0
6247 2 2.714000395675883 14.140731886600658 4.220744051602584 0 0 0
6147 2 6.345917171054019 14.196865562294839 14.511105823121087 0 0 0
84 1 4.531612818085682 14.14805378045945 5.502105549647312 0 0 0
6246 2 5.441520015182113 12.570156585287144 4.229735409028723 0 0 0
50 1 9.987851220040135 14.14805378059664 5.502105550042308 0 0 0
100 1 7.259120296758785 12.576687109476103 5.511107212937019 0 0 0
6202 2 8.170238797552203 14.140731886202484 4.220744051959531 0 0 0
137 1 1.8041788996695238 15.719451836885803 5.492036177453402 0 0 0
6237 2 2.7154108807716324 17.282018270835792 4.199567201186086 0 0 0
20 1 4.527476832059528 14.190075188899943 13.226372816860561 0 0 0
83 1 4.5330569701188885 17.29088598631611 5.480898740886043 0 0 0
6249 2 5.442789807931817 15.711349978053802 4.210687874407821 0 0 0
36 1 9.989295372650153 17.290885986347742 5.480898740705011 0 0 0
82 1 7.2604173017242655 15.719451836489172 5.492036177640814 0 0 0
6201 2 8.171649284044868 17.282018271519735 4.199567200485022 0 0 0
110 1 2.7084695944326187 1.579237522141997 8.120991529008352 0 0 0
14 1 5.435419958906716 12.626507607189955 15.807465048311492 0 0 0
6255 2 1.7985957152502465 0.006363266366937635 9.408166488119265 0 0 0
6259 2 0.8906908344538549 1.578424480074011 6.83485990421827 0 0 0
109 1 5.436554038712815 0.006363254452484327 8.12151780185548 0 0 0
6210 2 4.526748707278337 1.5800249206781927 9.407642101687896 0 0 0
6222 2 6.346929236529613 1.578424480206995 6.834859903908608 0 0 0
6275 2 3.6187752143044256 0.006363241337169393 6.835386607569974 0 0 0
57 1 8.164707996594398 1.5792375220099844 8.120991529064135 0 0 0
6168 2 9.982987109767453 1.5800249207920545 9.40764210089054 0 0 0
6220 2 7.2548341171064195 0.006363264820197183 9.408166487689252 0 0 0
6221 2 9.075013616376255 0.006363241948867415 6.835386607693139 0 0 0
95 1 2.708748378022351 4.724985902367033 8.116780447020304 0 0 0
6171 2 0.8896787680766902 14.196865561057608 14.511105824158449 0 0 0
6256 2 1.7987309976461 3.1536853145764816 9.406068837792104 0 0 0
6258 2 0.8909699424839982 4.722551056390474 6.830645497927539 0 0 0
111 1 5.436693194578526 3.152111743014094 8.11941258748704 0 0 0
6209 2 4.527019723141534 4.727343180106828 9.403446258752421 0 0 0
6214 2 6.347208344076357 4.722551056153092 6.830645497642606 0 0 0
6257 2 3.618914588078707 3.1504867247108166 6.833279680866597 0 0 0
56 1 8.164986779781794 4.724985902262037 8.116780447244647 0 0 0
6167 2 9.983258124759454 4.72734318086549 9.403446259095539 0 0 0
6208 2 7.254969399321306 3.1536853160263054 9.406068837933999 0 0 0
6223 2 9.075152990248696 3.150486725094099 6.833279681634451 0 0 0
94 1 2.709309372962095 7.870734379508852 8.108352730623123 0 0 0
64 1 1.7988138670952187 12.614232549951167 13.235196082183869 0 0 0
6240 2 1.7991386170809145 6.300997239563037 9.399773631548696 0 0 0
6244 2 0.8915308960795585 7.866690998509827 6.822211913226766 0 0 0
93 1 5.437112473521645 6.297860062613814 8.113094235825942 0 0 0
6195 2 4.5275652101119395 7.874646166243782 9.395049973408716 0 0 0
6213 2 6.347769297898705 7.866690998715861 6.8222119136914205 0 0 0
6260 2 3.6193341257810925 6.294618679676832 6.8269565923524596 0 0 0
49 1 8.16554777467921 7.8707343796662315 8.108352730604496 0 0 0
6166 2 9.983803612037367 7.874646167058271 9.395049974194222 0 0 0
6211 2 7.255377019213899 6.300997239390275 9.399773631496304 0 0 0
6212 2 9.07557252818408 6.294618679399878 6.826956591704175 0 0 0
80 1 2.7101585205725147 11.016484604517888 8.095697267953236 0 0 0
15 1 2.707781494135999 14.203824928023634 15.798768764404036 0 0 0
6241 2 1.7998235494351003 9.44828857309506 9.389274095202959 0 0 0
6243 2 0.8923784007035034 11.010856601646095 6.809549529807666 0 0 0
96 1 5.437816696150743 9.443609123875856 8.102554365547043 0 0 0
6194 2 4.528391401212486 11.02192295008457 9.382444724174036 0 0 0
6199 2 6.348616803025158 11.010856600951788 6.809549529550342 0 0 0
6242 2 3.620037700117413 9.43876965889677 6.8164100971981245 0 0 0
48 1 8.166396922781319 11.016484604256835 8.095697267481444 0 0 0
6160 2 9.984629802962154 11.02192294875418 9.38244472403425 0 0 0
6193 2 7.2560619517304845 9.448288572532366 9.389274093911743 0 0 0
6215 2 9.07627610199348 9.438769659914296 6.8164100979637405 0 0 0
79 1 2.711302702592135 14.162238515892696 8.078799419520331 0 0 0
6156 2 9.072701895732237 9.466990026248075 14.534269081674902 0 0 0
6232 2 1.80079297774313 12.595547554946346 9.37456069868914 0 0 0
6236 2 0.893517301215997 14.155064171419282 6.792645546214808 0 0 0
78 1 5.4388125133944865 12.58936106124535 8.087779489907756 0 0 0
6183 2 4.529506180644095 14.169160360124073 9.365621246027317 0 0 0
6198 2 6.3497557032484675 14.15506417211114 6.792645546079455 0 0 0
6245 2 3.6210303718340864 12.582954012613316 6.801628481509737 0 0 0
35 1 8.167541104723556 14.162238516499702 8.078799419331958 0 0 0
6159 2 9.985744582916196 14.169160361525233 9.365621245025155 0 0 0
6196 2 7.257031378489322 12.595547554935436 9.37456070011067 0 0 0
6197 2 9.077268774536737 12.58295401222039 6.8016284809235055 0 0 0
69 1 2.7127487338101792 17.307995576460996 8.057649698060036 0 0 0
26 1 7.254169604998975 9.462412708977954 13.249724455805197 0 0 0
6233 2 1.8020553667037689 15.742759047367496 9.355626252066346 0 0 0
6235 2 0.8949512891299989 17.299331988415773 6.771492878164873 0 0 0
81 1 5.440106748726471 15.735116784063626 8.068756113249131 0 0 0
6182 2 4.530918613510571 17.31634104810859 9.344576588449094 0 0 0
6184 2 6.351189690872271 17.299331987838006 6.771492879153022 0 0 0
6234 2 3.622316406838663 15.727189363992768 6.782600131230557 0 0 0
34 1 8.16898713592832 17.30799557617701 8.05764969871802 0 0 0
6152 2 9.987157015005465 17.316341047521515 9.34457658932344 0 0 0
6181 2 7.258293769825648 15.742759048128628 9.355626250927578 0 0 0
6200 2 9.078554808555959 15.72718936334948 6.782600131911905 0 0 0
91 1 0.8884468466069964 1.5808277950475815 10.695099551672229 0 0 0
6206 2 2.7068835581787827 1.581605396770765 11.980241369852171 0 0 0
7 1 9.982696604809883 11.038342394331154 13.242979951598969 0 0 0
54 1 6.344685248435464 1.5808277950003307 10.695099551701283 0 0 0
108 1 3.6165328681892377 0.006363276216808144 10.695622711573357 0 0 0
6205 2 5.434971101742303 0.006363287416826658 11.98076172123935 0 0 0
53 1 9.072771270246298 0.006363275855688937 10.695622711742606 0 0 0
6165 2 8.163121960092944 1.5816053968023343 11.980241370877717 0 0 0
90 1 0.8887131248211018 4.7297471089550625 10.690913479546847 0 0 0
6191 2 2.707137564604018 4.73207521151049 11.976078063783978 0 0 0
4 1 8.163120379781088 11.049122966484283 15.815139983042016 0 0 0
46 1 6.344951527108552 4.729747108480596 10.690913479241978 0 0 0
89 1 3.6166657376242117 3.15528989570139 10.693529967702208 0 0 0
6207 2 5.43509785790859 3.1568439235640837 11.978680254781368 0 0 0
55 1 9.072904139473545 3.1552898958909172 10.693529967623434 0 0 0
6164 2 8.163375966924663 4.732075210694898 11.976078063119417 0 0 0
76 1 0.8892495832066948 7.87863655238988 10.682536543990484 0 0 0
6190 2 2.707649440759612 7.882500577792363 11.967748297975188 0 0 0
6173 2 3.6164634938845155 9.466990026726345 14.53426908126347 0 0 0
45 1 6.345487985137805 7.878636552492992 10.682536543650514 0 0 0
92 1 3.6170664028222337 6.304196893793872 10.68724934093257 0 0 0
6189 2 5.4354800839231565 6.307295445825944 11.972434291143633 0 0 0
44 1 9.073304804981621 6.304196893611005 10.687249340615924 0 0 0
6158 2 8.16388784287324 7.882500578535258 11.967748297776774 0 0 0
75 1 0.890063453898152 11.027473371928297 10.669959965240164 0 0 0
6179 2 2.7084265437280446 11.032847554736344 11.9552468569327 0 0 0
6148 2 6.34496383595236 11.043665955080588 14.527577041625719 0 0 0
32 1 6.346301855765946 11.02747337254852 10.66995996529988 0 0 0
74 1 3.6177404838724128 9.453063138750075 10.6767738536804 0 0 0
6192 2 5.4361234579275175 9.457686225441927 11.962019376977704 0 0 0
47 1 9.07397888625699 9.453063138638477 10.676773853371497 0 0 0
6157 2 8.164664946106752 11.032847556158632 11.955246857171321 0 0 0
68 1 0.8911643636030847 14.176229432947533 10.653174126043941 0 0 0
6178 2 2.7094792855805525 14.183075213474957 11.938569449765367 0 0 0
27 1 4.526458202626693 11.038342394285173 13.242979951858123 0 0 0
31 1 6.347402765336223 14.176229432263355 10.65317412623761 0 0 0
77 1 3.618696548433493 12.601863542803077 10.662093678306261 0 0 0
6177 2 5.437036891576158 12.607979206554289 11.947430252479782 0 0 0
30 1 9.074934950145607 12.601863542473028 10.662093678832703 0 0 0
6151 2 8.165717686805351 14.183075211738343 11.93856945052238 0 0 0
67 1 0.8925641359939886 17.324868947071966 10.632174810688168 0 0 0
6172 2 2.710821158758508 17.333133195641032 11.917717815067865 0 0 0
25 1 5.434642263341237 9.471682129124464 15.82179259984999 0 0 0
21 1 6.348802538480816 17.324868947480628 10.632174810368035 0 0 0
66 1 3.619945265936183 15.750566312868756 10.643200994922172 0 0 0
6180 2 5.4382323092232765 15.758128960842383 11.928664896534926 0 0 0
33 1 9.076183668074385 15.75056631333096 10.64320099448752 0 0 0
6150 2 8.1670595613677 17.333133197221144 11.91771781365758 0 0 0
38 1 2.7055749736573795 1.5839574497830158 15.839706005497344 0 0 0
6174 2 0.8887254338611953 11.043665955295191 14.527577041205866 0 0 0
87 1 1.7968204916993942 0.00636329792828218 13.26839121074921 0 0 0
6187 2 0.8873357062687759 1.5831692054765698 14.552284670700246 0 0 0
37 1 5.433667475030255 0.006363316474199252 15.84021785364982 0 0 0
42 1 4.524970167916769 1.5824001344458878 13.2678729185529 0 0 0
6162 2 6.3435741078969645 1.583169206040996 14.552284671063239 0 0 0
6204 2 3.615426469761784 0.006363306294061098 14.552799347043154 0 0 0
9 1 8.161813375562394 1.583957449686311 15.83970600560211 0 0 0
12 1 9.981208569866093 1.5824001344235163 13.267872918634396 0 0 0
52 1 7.253058893961741 0.006363298146583484 13.268391210539516 0 0 0
6161 2 9.071664872315251 0.006363306240287466 14.55279934695818 0 0 0
24 1 2.7057893444484065 4.7391184509660365 15.83561135970978 0 0 0
73 1 1.7979312030226497 9.462412709207246 13.249724455739209 0 0 0
88 1 1.7969425253537956 3.158432244780466 13.266318000468074 0 0 0
6186 2 0.887563977105579 4.736757858988392 14.548167200229868 0 0 0
39 1 5.4337744001454205 3.1615448054259994 15.838170508141078 0 0 0
41 1 4.525214761055712 4.734454801697257 13.263726175450088 0 0 0
6155 2 6.343802379395475 4.736757860169024 14.54816719989285 0 0 0
6185 2 3.6155403495171905 3.1599693513917084 14.55074065206263 0 0 0
8 1 8.162027746661337 4.739118451306283 15.835611359295775 0 0 0
11 1 9.981453162991192 4.734454801527268 13.263726175344754 0 0 0
40 1 7.253180927398538 3.158432244865404 13.266318000492696 0 0 0
6163 2 9.071778751664953 3.159969352020123 14.550740651686665 0 0 0
23 1 2.706222234137159 7.894195144213162 15.827422259782626 0 0 0
16 1 2.7068819780158067 11.04912296670736 15.81513998275947 0 0 0
72 1 1.7973107154605992 6.310462741982799 13.260097008606547 0 0 0
6175 2 0.8880245488519501 7.890274995372108 14.539931498245835 0 0 0
22 1 5.434097250650518 6.316671137047143 15.832028579646387 0 0 0
28 1 4.525708086660905 7.886450669930732 13.255429962271844 0 0 0
6154 2 6.344262950869872 7.8902749950197295 14.539931497837006 0 0 0
6188 2 3.6158840179453557 6.313528583777769 14.544564185520947 0 0 0
5 1 8.162460636250968 7.894195144141232 15.827422259413213 0 0 0
10 1 9.981946488797975 7.886450670188129 13.255429962301477 0 0 0
43 1 7.253549116955646 6.3104627419337005 13.26009700873981 0 0 0
6153 2 9.072122419708375 6.313528582744322 14.54456418716599 0 0 0
9600 2 10.891987423861575 0.006363136174348507 -3.367147604207713 0 0 0
9598 2 10.892124878898853 3.13751686513656 -3.3692396348869127 0 0 0
9599 2 10.892536906194005 6.268730146050696 -3.3755148481096136 0 0 0
9596 2 10.893222315613489 9.400066362413598 -3.3859695385181876 0 0 0
9597 2 10.894181006202833 12.53159296461633 -3.400594714934617 0 0 0
9595 2 10.895433097058298 15.66337083356226 -3.4193793139126023 0 0 0
3262 1 10.895885865680858 0.006363178708387562 0.36356762916769075 0 0 0
3258 1 10.896023031824434 3.142329834479333 0.36146531412579835 0 0 0
3259 1 10.896434469594416 6.278344900172604 0.355158528139919 0 0 0
3254 1 10.897119908556101 9.414461781374056 0.3446481794410752 0 0 0
3255 1 10.89807961465152 12.550746989424656 0.32993674163562114 0 0 0
3133 1 10.892684239420985 15.781062650982149 15.789052558631441 0 0 0
3253 1 10.899318029599323 15.68729933402503 0.3110180021798893 0 0 0
9580 2 10.8955129875749 0.006363216277516282 4.263528957733127 0 0 0
9568 2 10.895652435017112 3.1472426796344717 4.261419183628486 0 0 0
9569 2 10.896071616589154 6.288147187432566 4.255088170850819 0 0 0
9560 2 10.896772763008679 9.429105852637669 4.244530371446285 0 0 0
9561 2 10.897758416830348 12.57015658493418 4.229735408963354 0 0 0
9559 2 10.8990282102889 15.71134997890645 4.210687874289445 0 0 0
3229 1 10.892792440744676 0.006363254712532805 8.121517801655196 0 0 0
3214 1 10.89293159657061 3.1521117429363694 8.119412587162946 0 0 0
3215 1 10.893350875533526 6.297860062545539 8.11309423565356 0 0 0
3206 1 10.894055097933284 9.443609123862062 8.102554365619685 0 0 0
3135 1 10.891658361156859 12.62650760769086 15.80746504819189 0 0 0
3207 1 10.895050915570616 12.5893610611339 8.087779489885518 0 0 0
3205 1 10.89634515059677 15.735116784003223 8.068756113606431 0 0 0
9518 2 10.891209504041827 0.006363286750177034 11.980761721496915 0 0 0
9502 2 10.8913362601723 3.15684392421681 11.978680254682025 0 0 0
9503 2 10.891718486525333 6.307295445237168 11.972434289825655 0 0 0
9494 2 10.892361859922215 9.457686225807524 11.96201937690369 0 0 0
9495 2 10.893275292167175 12.607979205645536 11.947430253716554 0 0 0
9493 2 10.894470712162422 15.758128962553627 11.928664895376762 0 0 0
3158 1 10.88990587703164 0.00636331627369075 15.84021785359133 0 0 0
3142 1 10.890012802385977 3.1615448056316393 15.83817050811612 0 0 0
3143 1 10.890335652634661 6.31667113710267 15.832028580064039 0 0 0
3134 1 10.890880665379177 9.471682129097395 15.821792599769473 0 0 0
575 1 1.7892723133986757 18.80616563027165 -2.3785435717956918 0 0 0
6735 2 3.629453080983313 18.814024800296984 -0.9351081301546235 0 0 0
6736 2 5.440788668480853 18.79550974935541 -3.4423220260250997 0 0 0
564 1 7.2455107153643965 18.806165630605832 -2.3785435716394945 0 0 0
6698 2 9.085691483085998 18.81402480159544 -0.9351081317367075 0 0 0
6725 2 1.8087460436895832 18.833570823922503 1.6197599545064414 0 0 0
556 1 3.625954686867888 18.843502209738 2.886345907050954 0 0 0
557 1 5.444597889730312 18.824254621089597 0.28783036951823693 0 0 0
509 1 9.082193088772254 18.843502209368296 2.8863459071434443 0 0 0
6697 2 7.264984445082054 18.83357082187787 1.619759955441845 0 0 0
542 1 1.805770420638722 18.862361438229055 5.468694787265002 0 0 0
6684 2 5.444339785621447 18.85274469118904 4.187384673077647 0 0 0
508 1 7.262008822914208 18.86236143860596 5.468694787152883 0 0 0
6663 2 1.8036204644103146 18.889903663086844 9.332474449878184 0 0 0
493 1 5.4417064854531025 18.88087465145818 8.045481757068393 0 0 0
6683 2 3.623899198025268 18.871494741336438 6.759326159943357 0 0 0
6628 2 7.25985886654278 18.889903662549493 9.332474450356539 0 0 0
3613 1 10.897944887472066 18.88087465158788 8.045481756979143 0 0 0
6629 2 9.080137600286735 18.871494742453194 6.759326160048641 0 0 0
492 1 3.621499640311463 18.89913170498656 10.620097209270739 0 0 0
437 1 9.077738041996014 18.899131704918435 10.62009720950572 0 0 0
10008 2 10.897027070264638 18.79550974865569 -3.4423220257108964 0 0 0
3646 1 10.900836292179074 18.824254621706164 0.28783036950068897 0 0 0
9988 2 10.900578187267152 18.85274469014859 4.187384674007018 0 0 0
6527 2 1.7962089275556063 0.006363326188629124 17.12415495942819 0 0 0
6337 2 8.168067694069958 17.484731613016425 35.04792798399297 0 0 0
6510 2 2.705473008376886 1.5862605664537786 19.694283702749452 0 0 0
382 1 0.8865128328776083 1.5855029129695597 18.410730347860763 0 0 0
6514 2 4.524352384728175 1.584719796665959 17.12364735337475 0 0 0
6509 2 5.433572899410784 0.006363345744510567 19.694783209374034 0 0 0
359 1 6.342751234970938 1.5855029133090452 18.410730347815655 0 0 0
384 1 3.6146100047382492 0.006363334796624938 18.4112344983561 0 0 0
6516 2 7.2524473290934495 0.006363326304484648 17.124154959942548 0 0 0
358 1 9.070848406706105 0.006363334933184212 18.411234498416718 0 0 0
6465 2 8.161711410196874 1.5862605668563265 19.694283702305647 0 0 0
6468 2 9.98059078628687 1.5847197964445994 17.123647353889492 0 0 0
6528 2 1.7963060765567127 3.1630686651630326 17.122124635776036 0 0 0
210 1 9.076274473038426 15.888275510070251 33.775761046342055 0 0 0
381 1 0.8866898128536373 4.743748161284417 18.40669791665004 0 0 0
6502 2 2.7056281366804784 4.746018772368497 19.69028876858633 0 0 0
6513 2 4.524547175886486 4.741402159938283 17.119587002393725 0 0 0
6511 2 5.433650245909821 3.166148772358669 19.69278538588529 0 0 0
355 1 6.342928214614013 4.743748161310121 18.40669791673992 0 0 0
380 1 3.61469825653062 3.1646340629838168 18.40921804489238 0 0 0
6512 2 7.2525444783923705 3.163068664033981 17.122124636702416 0 0 0
360 1 9.070936658391949 3.164634062652567 18.40921804504599 0 0 0
6464 2 8.161866538452625 4.746018771953182 19.690288768646706 0 0 0
6467 2 9.980785578280623 4.741402160677801 17.119587001402948 0 0 0
6524 2 1.7965994908788043 6.319712185279013 17.116034785746237 0 0 0
6353 2 5.440226424186274 15.896073979158622 35.05721873386406 0 0 0
375 1 0.8870476077881124 7.9018887791087 18.398636606861473 0 0 0
6501 2 2.705941951137057 7.9056653539039 19.682304368991 0 0 0
6506 2 4.524940697637887 7.89799014762748 17.111468504313912 0 0 0
354 1 6.3432860099905435 7.901888779007871 18.398636607069324 0 0 0