LAMMPS data file via write_data, version 15 Sep 2022, timestep = 709

46752 atoms
2 atom types

0 21.824953608198122 xlo xhi
0 151.2077140889313 ylo yhi
-3.7308703475492444 152.68178422265132 zlo zhi

Masses

1 180.948
2 12.011

Atoms # atomic

383 1 1.7900260087769602 0.006365005514378428 -2.47252128242008 0 0 0
12273 2 0.8931396573175193 1.5769406602806666 -1.02945890752244 0 0 0
12281 2 2.707533439939261 1.5764398596425928 -3.5348974181040127 0 0 0
12288 2 21.80436866720056 0.0063650115752526895 -3.53470671697768 -1 0 0
370 1 4.5181612066091965 1.5767978879387088 -2.4727160722679336 0 0 0
12279 2 3.6212686976328796 0.006365002696613452 -1.029262322023644 0 0 0
12280 2 5.435653460550725 0.00636501087897906 -3.534706716218997 0 0 0
372 1 7.246264411410077 0.006365004457108276 -2.472521282143675 0 0 0
12239 2 9.077507099259497 0.006365002886595722 -1.0292623210833003 0 0 0
12240 2 6.34937805959196 1.5769406595068713 -1.0294589080014716 0 0 0
12244 2 8.163771842261427 1.5764398592027788 -3.5348974179424753 0 0 0
323 1 9.974399609657528 1.5767978894494692 -2.472716072221871 0 0 0
12165 2 11.805616461416252 1.5769406602807605 -1.0294589075224694 0 0 0
12246 2 10.891891863101655 0.006365011575274565 -3.5347067169773303 0 0 0
238 1 15.43063801070873 1.5767978879387397 -2.4727160722676396 0 0 0
322 1 12.702502812875744 0.006365005514670963 -2.4725212824201743 0 0 0
12171 2 14.53374550173127 0.006365002696276894 -1.0292623220241919 0 0 0
12173 2 13.62001024403828 1.5764398596424825 -3.5348974181038635 0 0 0
240 1 18.158741215509316 0.006365004457345119 -2.472521282143161 0 0 0
12075 2 17.261854863690605 1.5769406595067792 -1.0294589080013459 0 0 0
12172 2 16.34813026465028 0.006365010879067982 -3.5347067162192025 0 0 0
144 1 20.88687641375663 1.5767978894490944 -2.472716072221728 0 0 0
12074 2 19.98998390335895 0.006365002886772457 -1.0292623210833094 0 0 0
12078 2 19.076248646361286 1.5764398592029327 -3.5348974179422594 0 0 0
384 1 1.7900898927807998 3.14724971449475 -2.4732996637267997 0 0 0
12272 2 0.893060873407873 4.718164186158926 -1.031026854899092 0 0 0
12277 2 2.7075266320216516 4.7166708240733985 -3.536418407521522 0 0 0
12286 2 21.80436535143943 3.146535042280302 -3.5354687541522045 -1 0 0
369 1 4.518288557785519 4.717739357462135 -2.474269712369925 0 0 0
12271 2 3.6212293319923177 3.147534383741476 -1.0300478762963061 0 0 0
12282 2 5.435650146381696 3.146535041292224 -3.5354687534802967 0 0 0
368 1 7.246328296578926 3.1472497141920575 -2.473299663381765 0 0 0
12232 2 6.349299277501101 4.718164185285029 -1.0310268556489568 0 0 0
12241 2 9.077467734504397 3.1475343842833086 -1.030047876464179 0 0 0
12243 2 8.163765034580255 4.71667082326426 -3.5364184072154887 0 0 0
319 1 9.974526960885177 4.717739357677983 -2.474269712465647 0 0 0
12164 2 11.805537677506877 4.718164186158851 -1.031026854899133 0 0 0
12242 2 10.891888547339821 3.146535042280338 -3.5354687541518577 0 0 0
237 1 15.43076536188471 4.717739357462309 -2.47426971236987 0 0 0
324 1 12.70256669687943 3.1472497144948313 -2.4732996637263422 0 0 0
12163 2 14.533706136091052 3.147534383741505 -1.0300478762966259 0 0 0
12169 2 13.620003436120651 4.71667082407363 -3.536418407521585 0 0 0
236 1 18.158805100678233 3.1472497141919944 -2.4732996633816895 0 0 0
12069 2 17.26177608160035 4.718164185285593 -1.0310268556490414 0 0 0
12174 2 16.348126950480903 3.14653504129231 -3.535468753479831 0 0 0
143 1 20.887003764983923 4.717739357677899 -2.474269712465499 0 0 0
12076 2 19.989944538604146 3.1475343842832695 -1.0300478764641725 0 0 0
12077 2 19.07624183867977 4.716670823264289 -3.536418407215255 0 0 0
380 1 1.7902798670078568 6.288285571216053 -2.475622316744715 0 0 0
12262 2 0.8929028855457554 7.859603470019703 -1.03413748176294 0 0 0
12276 2 2.707511534389524 7.85714455511022 -3.5394356688368345 0 0 0
12287 2 21.804354674224264 6.286867347459216 -3.537742510051066 -1 0 0
362 1 4.518539896222946 7.858906926993297 -2.4773520318398465 0 0 0
12274 2 3.6211110230593127 6.288847967917175 -1.0323918939047527 0 0 0
12275 2 5.435639468705003 6.286867346665444 -3.537742508191392 0 0 0
371 1 7.246518271229189 6.288285570892869 -2.4756223156804027 0 0 0
12230 2 9.077349424434747 6.288847968010514 -1.0323918935013465 0 0 0
12231 2 6.349141288078369 7.85960346904251 -1.0341374806256396 0 0 0
12236 2 8.163749936823148 7.857144556030666 -3.53943567053176 0 0 0
318 1 9.974778299035394 7.8589069253736765 -2.4773520323720923 0 0 0
12153 2 11.805379689644305 7.859603470020484 -1.0341374817632638 0 0 0
12245 2 10.891877870124706 6.2868673474596815 -3.5377425100510878 0 0 0
230 1 15.43101670032167 7.858906926993705 -2.477352031839996 0 0 0
317 1 12.702756671106586 6.288285571216278 -2.475622316744764 0 0 0
12166 2 14.533587827158026 6.288847967917342 -1.032391893905245 0 0 0
12168 2 13.6199883384884 7.857144555110448 -3.5394356688366555 0 0 0
239 1 18.158995075328477 6.288285570892848 -2.4756223156802113 0 0 0
12068 2 17.26161809217767 7.859603469042763 -1.0341374806254637 0 0 0
12167 2 16.34811627280375 6.286867346665405 -3.5377425081912848 0 0 0
142 1 20.887255103134123 7.858906925373926 -2.4773520323717872 0 0 0
12067 2 19.989826228534454 6.28884796801021 -1.0323918935010634 0 0 0
12072 2 19.076226740922596 7.857144556031006 -3.5394356705314363 0 0 0
381 1 1.7905909034636402 9.429621751706282 -2.47945188579478 0 0 0
12261 2 0.8926649771869952 11.001399474108172 -1.0387405219752548 0 0 0
12266 2 2.70748530534977 10.998019454216854 -3.5439000693931226 0 0 0
12284 2 21.804334443349664 9.427522137945164 -3.5414909859966257 -1 0 0
361 1 4.518908569476707 11.00044805497616 -2.481913392189137 0 0 0
12260 2 3.6209131714216327 9.430448221726946 -1.0362565550307363 0 0 0
12278 2 5.435619237709747 9.427522138989003 -3.5414909861610098 0 0 0
360 1 7.246829306220878 9.429621751721392 -2.4794518852460574 0 0 0
12217 2 6.348903380307054 11.00139947493043 -1.0387405236740141 0 0 0
12233 2 9.077151573215023 9.430448224998424 -1.0362565556411991 0 0 0
12235 2 8.16372370599464 10.998019454794713 -3.543900069617218 0 0 0
307 1 9.97514697078929 11.000448052358037 -2.4819133922917236 0 0 0
12152 2 11.805141781285993 11.001399474108768 -1.0387405219754509 0 0 0
12234 2 10.891857639250338 9.427522137945138 -3.5414909859963144 0 0 0
229 1 15.431385373575225 11.000448054976458 -2.481913392189339 0 0 0
320 1 12.703067707562075 9.42962175170632 -2.4794518857950605 0 0 0
12151 2 14.533389975520583 9.43044822172606 -1.0362565550303882 0 0 0
12157 2 13.619962109448933 10.998019454217163 -3.543900069393366 0 0 0
228 1 18.159306110319797 9.42962175172207 -2.4794518852460765 0 0 0
12055 2 17.261380184405947 11.001399474931565 -1.0387405236742013 0 0 0
12170 2 16.348096041808553 9.42752213898924 -3.54149098616077 0 0 0
135 1 20.887623774888 11.000448052359001 -2.481913392291327 0 0 0
12070 2 19.989628377314265 9.430448224998147 -1.0362565556412895 0 0 0
12071 2 19.076200510093994 10.998019454794843 -3.5439000696169507 0 0 0
376 1 1.791014773181243 12.571403462912425 -2.4847265825550733 0 0 0
12254 2 0.892346423005082 14.143688750840337 -1.044761302274791 0 0 0
12265 2 2.707443982449682 14.139448689949846 -3.549738647803562 0 0 0
12285 2 21.804301220811617 12.56865547114711 -3.54665305411911 -1 0 0
348 1 4.519384837132573 14.142505172429543 -2.4878800289955634 0 0 0
12263 2 3.6206350198478354 12.572474142634048 -1.0415792953266307 0 0 0
12264 2 5.4355860143014985 12.568655470734877 -3.546653055594382 0 0 0
363 1 7.247253173679866 12.571403463050245 -2.4847265823261067 0 0 0
12215 2 9.07687342066564 12.572474142284584 -1.0415792943946414 0 0 0
12216 2 6.348584823213077 14.143688750717542 -1.0447613004893648 0 0 0
12221 2 8.16368238397613 14.139448689429667 -3.5497386501820953 0 0 0
306 1 9.975623236652224 14.142505171096497 -2.487880028591511 0 0 0
12137 2 11.804823227104343 14.143688750840854 -1.0447613022752795 0 0 0
12237 2 10.89182441671242 12.568655471146744 -3.546653054119288 0 0 0
215 1 15.431861641231897 14.142505172429576 -2.487880028995643 0 0 0
305 1 12.7034915772799 12.571403462911592 -2.4847265825549525 0 0 0
12154 2 14.533111823946735 12.5724741426333 -1.0415792953271197 0 0 0
12156 2 13.619920786548889 14.139448689949393 -3.549738647803686 0 0 0
231 1 18.159729977778547 12.571403463051128 -2.4847265823259757 0 0 0
12054 2 17.261061627312145 14.143688750717903 -1.044761300489334 0 0 0
12155 2 16.34806281840067 12.568655470734676 -3.5466530555940516 0 0 0
134 1 20.888100040751482 14.14250517109736 -2.4878800285914484 0 0 0
12053 2 19.989350224764017 12.57247414228446 -1.041579294395015 0 0 0
12058 2 19.076159188075298 14.139448689429427 -3.5497386501824173 0 0 0
377 1 1.791540298807711 15.713769869861366 -2.4913608822283417 0 0 0
12253 2 0.8919468243185149 17.28660161476553 -1.052101608348109 0 0 0
12255 2 2.7073828236967565 17.281578026689076 -3.556855518539919 0 0 0
12283 2 21.804250605569397 15.710417084118992 -3.553144153328579 -1 0 0
347 1 4.519956170747649 17.285213676573264 -2.495154914358839 0 0 0
12252 2 3.6202759532161815 15.715059385621188 -1.048273539754352 0 0 0
12267 2 5.435535398216864 15.710417085096108 -3.5531441555780408 0 0 0
346 1 7.247778698757563 15.713769868201629 -2.491360882920233 0 0 0
12199 2 6.3481852247921795 17.286601614077156 -1.0521016083284302 0 0 0
12218 2 9.076514355224157 15.715059387150133 -1.048273539402742 0 0 0
12220 2 8.1636212246168 17.281578025836577 -3.556855517131484 0 0 0
288 1 9.976194571638686 17.285213676640907 -2.4951549131080366 0 0 0
12136 2 11.804423628418292 17.286601614765214 -1.0521016083486745 0 0 0
12219 2 10.89177380146986 15.710417084118776 -3.5531441533283727 0 0 0
214 1 15.432432974847108 17.285213676572653 -2.4951549143587077 0 0 0
308 1 12.704017102906812 15.713769869860393 -2.4913608822280127 0 0 0
12135 2 14.532752757315262 15.715059385620838 -1.0482735397541623 0 0 0
12138 2 13.619859627795467 17.281578026688916 -3.556855518540198 0 0 0
213 1 18.160255502856558 15.713769868201496 -2.4913608829202385 0 0 0
12036 2 17.26066202889161 17.286601614077323 -1.0521016083281503 0 0 0
12158 2 16.3480122023161 15.710417085095491 -3.553144155578075 0 0 0
119 1 20.88867137573853 17.28521367664126 -2.4951549131081467 0 0 0
12056 2 19.98899115932352 15.715059387150072 -1.0482735394035174 0 0 0
12057 2 19.07609802871596 17.281578025836534 -3.5568555171316665 0 0 0
354 1 0.8911636028434444 1.577713073685306 2.790123074593642 0 0 0
366 1 2.7098069100546547 1.577256805133352 0.19274519882111502 0 0 0
382 1 21.806646672966515 0.006364999688315615 0.19294317473874634 -1 0 0
12269 2 1.8014353882847078 0.00636499497093757 1.5247297211602937 0 0 0
364 1 3.6192881271378576 0.006364987277761688 2.790325952190216 0 0 0
365 1 5.437931467483408 0.006365002468306107 0.19294317581099535 0 0 0
12228 2 4.529547257611189 1.5774448790186077 1.5245288464388935 0 0 0
310 1 9.075526529568549 0.006364989784698503 2.790325951450785 0 0 0
311 1 6.347402005450906 1.5777130760997153 2.7901230768317866 0 0 0
315 1 8.166045312337097 1.5772568045583903 0.19274519853985053 0 0 0
12238 2 7.257673791312451 0.0063649954042275785 1.5247297213033415 0 0 0
222 1 11.803640406942398 1.5777130736860787 2.790123074593118 0 0 0
321 1 10.89416986886743 0.006364999687271637 0.19294317473799177 0 0 0
12161 2 9.985785659468933 1.5774448788912205 1.5245288472257439 0 0 0
232 1 14.531764931235008 0.0063649872778101845 2.7903259521896473 0 0 0
234 1 13.622283714152065 1.577256805134461 0.1927451988204156 0 0 0
12065 2 15.442024061709501 1.5774448790192361 1.5245288464384348 0 0 0
12160 2 12.713912192382807 0.006364994970754402 1.524729721159144 0 0 0
138 1 17.259878809548646 1.5777130761003277 2.7901230768310907 0 0 0
233 1 16.350408271580932 0.0063650024680142366 0.192943175810434 0 0 0
12073 2 18.170150595411087 0.0063649954042960585 1.5247297213027597 0 0 0
137 1 19.988003333666583 0.006364989784385418 2.7903259514508942 0 0 0
141 1 19.07852211643577 1.5772568045582775 0.19274519854024297 0 0 0
11988 2 20.898262463567963 1.5774448788915905 1.5245288472257552 0 0 0
353 1 0.8911208037508364 4.720468114956013 2.788504928765149 0 0 0
358 1 2.709763869456087 4.719107648748651 0.1911661526823589 0 0 0
378 1 21.80662521961949 3.1481654278157003 0.19215206317949296 -1 0 0
12270 2 1.8014060380432104 3.148540609742517 1.5239270285767286 0 0 0
352 1 3.6192668019232506 3.1490758873150706 2.7895152623998296 0 0 0
367 1 5.437910014760782 3.148165428621335 0.19215206277993435 0 0 0
12227 2 4.529488449828148 4.719667974715157 1.5229266704589883 0 0 0
299 1 6.347359207014078 4.720468112858205 2.7885049292970834 0 0 0
312 1 9.075505204147653 3.1490758896890725 2.78951526301346 0 0 0
314 1 8.166002273575 4.719107648847464 0.19116615262218797 0 0 0
12226 2 7.257644441014829 3.1485406092843866 1.5239270291328249 0 0 0
221 1 11.80359760784977 4.720468114957228 2.7885049287645254 0 0 0
313 1 10.89414841552045 3.1481654278157225 0.19215206317904682 0 0 0
12149 2 9.985726852613976 4.719667977396494 1.522926670151774 0 0 0
220 1 14.531743606022456 3.149075887315864 2.7895152624004536 0 0 0
226 1 13.622240673555137 4.71910764874942 0.19116615268217818 0 0 0
12064 2 15.441965253926824 4.719667974715319 1.5229266704588904 0 0 0
12162 2 12.7138828421424 3.1485406097428705 1.5239270285764248 0 0 0
130 1 17.259836011113258 4.720468112858042 2.788504929297059 0 0 0
235 1 16.350386818859814 3.148165428621498 0.19215206277989175 0 0 0
12063 2 18.170121245113908 3.1485406092835273 1.5239270291324158 0 0 0
139 1 19.987982008246902 3.1490758896884916 2.7895152630137936 0 0 0
140 1 19.078479077674068 4.719107648847316 0.19116615262203965 0 0 0
11987 2 20.898203656713434 4.719667977396919 1.5229266701517195 0 0 0
340 1 0.8910340221850572 7.8633990890828045 2.785294506231395 0 0 0
357 1 2.7096767277495473 7.8611594304091765 0.1880334792976924 0 0 0
379 1 21.806560323415088 6.290100143305106 0.18979144141991064 -1 0 0
12258 2 1.8013175556924061 6.290842697412012 1.5215317935879988 0 0 0
355 1 3.6192022283250562 6.291904349773179 2.787096120533458 0 0 0
356 1 5.437845119255239 6.290100142913695 0.189791441057417 0 0 0
12213 2 4.529369981062918 7.862080349117779 1.519747993697568 0 0 0
297 1 9.075440631196548 6.291904352005388 2.7870961230192415 0 0 0
298 1 6.347272425181058 7.863399087555072 2.7852945066494375 0 0 0
303 1 8.16591513122695 7.861159430139952 0.18803348088473357 0 0 0
12229 2 7.257555958639434 6.290842698180173 1.5215317927744831 0 0 0
207 1 11.803510826283162 7.863399089082731 2.7852945062311996 0 0 0
316 1 10.894083519315515 6.290100143305162 0.1897914414197043 0 0 0
12148 2 9.985608381069273 7.862080349444153 1.5197479970085308 0 0 0
223 1 14.531679032423263 6.291904349772968 2.787096120532822 0 0 0
225 1 13.62215353184816 7.861159430409687 0.1880334792974069 0 0 0
12051 2 15.441846785161857 7.862080349118264 1.519747993697283 0 0 0
12147 2 12.713794359790993 6.290842697411787 1.5215317935877282 0 0 0
129 1 17.25974922928074 7.863399087555207 2.7852945066492407 0 0 0
224 1 16.350321923354564 6.290100142914772 0.18979144105730886 0 0 0
12066 2 18.17003276273883 6.290842698180226 1.521531792774497 0 0 0
128 1 19.987917435296836 6.29190435200547 2.787096123018717 0 0 0
133 1 19.07839193532611 7.861159430139591 0.18803348088506966 0 0 0
11986 2 20.898085185168704 7.8620803494446 1.5197479970091483 0 0 0
339 1 0.8909010549051415 11.006621150714851 2.780543344960098 0 0 0
344 1 2.709543514428894 11.003543381845075 0.18339777349359523 0 0 0
374 1 21.80645043721089 9.43230182607313 0.18589937492301456 -1 0 0
12259 2 1.8011687030835728 9.433396332219697 1.5175824602211316 0 0 0
338 1 3.6190926859088295 9.434966647568151 2.7831073130733563 0 0 0
359 1 5.437735233100075 9.432301824195266 0.1858993742417789 0 0 0
12212 2 4.529190279168672 11.004805816771404 1.5150439241017946 0 0 0
283 1 6.347139457684021 11.006621148218159 2.780543346384793 0 0 0
300 1 9.075331085271431 9.434966650887967 2.7831073161201574 0 0 0
302 1 8.165781917296872 11.003543384284288 0.18339777275845243 0 0 0
12211 2 7.257407103982451 9.433396329711115 1.517582462447476 0 0 0
206 1 11.803377859005561 11.006621150714539 2.7805433449609573 0 0 0
301 1 10.893973633112179 9.432301826073141 0.18589937492299655 0 0 0
12133 2 9.985428680885136 11.004805820417673 1.5150439240545515 0 0 0
205 1 14.531569490007914 9.434966647568112 2.7831073130735238 0 0 0
211 1 13.622020318528357 11.003543381845246 0.18339777349364322 0 0 0
12050 2 15.441667083267365 11.00480581677139 1.5150439241016902 0 0 0
12150 2 12.713645507182745 9.433396332219793 1.5175824602210928 0 0 0
115 1 17.259616261782487 11.00662114821859 2.780543346385393 0 0 0
227 1 16.350212037199285 9.432301824195557 0.18589937424209532 0 0 0
12049 2 18.169883908081662 9.43339632971059 1.517582462447555 0 0 0
131 1 19.987807889370057 9.434966650887485 2.7831073161193407 0 0 0
132 1 19.078258721395315 11.00354338428501 0.18339777275852273 0 0 0
11979 2 20.897905484984037 11.004805820418005 1.5150439240547424 0 0 0
332 1 0.890718967382454 14.150246170036239 2.774328047025045 0 0 0
343 1 2.7093616190909007 14.146386595576873 0.1773341964802922 0 0 0
375 1 21.806293238593245 12.574899849045364 0.1805388340028086 -1 0 0
12250 2 1.8009576492800663 12.576323708586205 1.5121426551862567 0 0 0
341 1 3.618935554211263 12.578376459255646 2.7776129709301087 0 0 0
342 1 5.437578033623253 12.574899849230748 0.18053883515688834 0 0 0
12198 2 4.528947352654876 14.147964583471161 1.5088904157641194 0 0 0
281 1 9.07517395397812 12.57837646552802 2.7776129701798014 0 0 0
282 1 6.346957369439938 14.150246170840395 2.7743280496019613 0 0 0
287 1 8.165600019939156 14.146386597569292 0.17733419745754733 0 0 0
12214 2 7.257196051782856 12.576323711150224 1.5121426549137016 0 0 0
191 1 11.80319577148188 14.1502461700372 2.7743280470250227 0 0 0
304 1 10.893816434495157 12.574899849045593 0.18053883400334808 0 0 0
12132 2 9.985185754279392 14.14796458410397 1.508890417765739 0 0 0
208 1 14.531412358310924 12.578376459255887 2.777612970930966 0 0 0
210 1 13.621838423189814 14.146386595576523 0.17733419648029727 0 0 0
12035 2 15.441424156753664 14.147964583471254 1.5088904157639083 0 0 0
12131 2 12.713434453379493 12.576323708586699 1.5121426551862374 0 0 0
114 1 17.25943417353872 14.150246170840708 2.7743280496023948 0 0 0
209 1 16.3500548377221 12.57489984923098 0.18053883515664396 0 0 0
12052 2 18.169672855881576 12.576323711150248 1.5121426549133576 0 0 0
113 1 19.987650758076306 12.578376465528255 2.7776129701795687 0 0 0
118 1 19.07807682403808 14.146386597570148 0.17733419745762355 0 0 0
11978 2 20.897662558378002 14.147964584103653 1.5088904177661675 0 0 0
331 1 0.8904844915149619 17.29438129775153 2.7667493900746982 0 0 0
333 1 2.709128134807643 17.289810302315974 0.16994160276547568 0 0 0
373 1 21.806085910606736 15.718018587005792 0.1737969519891379 -1 0 0
12251 2 1.8006823358316901 15.719742644479643 1.5053004407620525 0 0 0
330 1 3.618727678463046 15.722243496445236 2.7707019225483784 0 0 0
345 1 5.437370703559758 15.718018585370947 0.17379695592154598 0 0 0
12197 2 4.528639180420644 17.291671671201676 1.5013873898886787 0 0 0
265 1 6.346722891733195 17.294381300947137 2.7667493902029796 0 0 0
284 1 9.074966080478228 15.722243501604721 2.7707019202353806 0 0 0
286 1 8.165366536001683 17.28981030371168 0.16994160071610917 0 0 0
12196 2 7.256920737227932 15.71974264319793 1.505300442477505 0 0 0
190 1 11.802961295613898 17.294381297751507 2.7667493900745344 0 0 0
285 1 10.893609106506945 15.718018587005767 0.1737969519890519 0 0 0
12114 2 9.984877584652585 17.291671672681247 1.5013873876230002 0 0 0
189 1 14.531204482561268 15.722243496445483 2.77070192254797 0 0 0
192 1 13.621604938907296 17.28981030231592 0.1699416027658975 0 0 0
12034 2 15.441115984519666 17.29167167120185 1.5013873898887977 0 0 0
12134 2 12.713159139930644 15.719742644479668 1.5053004407623471 0 0 0
96 1 17.259199695832745 17.294381300947627 2.766749390203099 0 0 0
212 1 16.349847507658662 15.718018585370505 0.17379695592167685 0 0 0
12033 2 18.16939754132713 15.719742643197662 1.50530044247749 0 0 0
116 1 19.98744288457776 15.722243501604398 2.7707019202352514 0 0 0
117 1 19.07784334010059 17.28981030371141 0.16994160071639208 0 0 0
11963 2 20.897354388751477 17.291671672681815 1.5013873876230635 0 0 0
350 1 1.7997055041423864 0.006364977006968402 5.372118330109754 0 0 0
12224 2 2.7096863761546874 1.5778903912822217 4.091671232590182 0 0 0
12268 2 21.806525503146588 0.0063649849503486676 4.091876097968824 -1 0 0
295 1 4.5278214617613655 1.5781122100901452 5.3719108306252075 0 0 0
12223 2 5.437810296393463 0.00636498556257099 4.091876098962971 0 0 0
309 1 7.255943905561623 0.006364980613000938 5.372118329340574 0 0 0
12145 2 8.165924778790723 1.5778903937577209 4.091671233139369 0 0 0
218 1 9.984059864276361 1.5781122127733993 5.37191082960474 0 0 0
12159 2 10.894048699047397 0.0063649849501169024 4.091876097969148 0 0 0
126 1 15.440298265859761 1.5781122100896703 5.371910830624417 0 0 0
217 1 12.712182308241996 0.006364977007046744 5.3721183301102915 0 0 0
12061 2 13.62216318025357 1.5778903912813902 4.091671232590321 0 0 0
136 1 18.168420709659426 0.006364980612412054 5.372118329339723 0 0 0
12060 2 16.350287100491272 0.006364985561422534 4.091876098962985 0 0 0
60 1 20.89653666837496 1.5781122127732619 5.371910829604244 0 0 0
11985 2 19.078401582889573 1.5778903937580808 4.0916712331387 0 0 0
351 1 1.7996924838088229 3.149872250262966 5.3712891315966855 0 0 0
12209 2 2.7096483878529924 4.720996365437145 4.090037176340362 0 0 0
12256 2 21.806506590847228 3.1494295932498764 4.091057446635456 -1 0 0
294 1 4.527795220507845 4.721657877403717 5.370255703259388 0 0 0
12225 2 5.437791384778431 3.1494295936420458 4.091057446318409 0 0 0
293 1 7.255930885175787 3.1498722539491384 5.371289133543568 0 0 0
12144 2 8.165886789198886 4.720996365609969 4.090037178190824 0 0 0
203 1 9.984033622141807 4.7216578789821435 5.370255704998752 0 0 0
12143 2 10.894029786747518 3.1494295932501406 4.091057446635529 0 0 0
125 1 15.440272024606998 4.721657877405011 5.370255703258406 0 0 0
219 1 12.712169287907326 3.1498722502636927 5.371289131596328 0 0 0
12047 2 13.622125191952128 4.720996365438124 4.090037176340076 0 0 0
124 1 18.168407689275323 3.149872253950019 5.371289133543244 0 0 0
12062 2 16.350268188877905 3.149429593642523 4.091057446317683 0 0 0
59 1 20.89651042624201 4.721657878982109 5.370255704998527 0 0 0
11984 2 19.07836359329786 4.720996365610263 4.09003717819114 0 0 0
336 1 1.799652618472554 6.293481815007603 5.368814639031697 0 0 0
12208 2 2.709571081160202 7.864267289747047 4.086795034504145 0 0 0
12257 2 21.806449187544494 6.292604398194535 4.088614482622062 -1 0 0
279 1 4.527741134746979 7.865356695148778 5.366971653958699 0 0 0
12207 2 5.437733980912659 6.292604394775091 4.088614483232354 0 0 0
296 1 7.255891018745138 6.2934818160976445 5.368814642460003 0 0 0
12129 2 8.165809484158752 7.8642672933462645 4.086795033683587 0 0 0
202 1 9.983979536128773 7.86535670072955 5.366971653339085 0 0 0
12146 2 10.893972383444726 6.292604398194532 4.088614482622214 0 0 0
111 1 15.440217938846073 7.865356695149194 5.366971653958594 0 0 0
201 1 12.712129422571177 6.2934818150083744 5.368814639032062 0 0 0
12046 2 13.622047885258675 7.864267289746858 4.086795034504441 0 0 0
127 1 18.1683678228449 6.2934818160977235 5.368814642459323 0 0 0
12045 2 16.35021078501164 6.292604394775027 4.088614483232361 0 0 0
58 1 20.896456340227903 7.8653567007291905 5.366971653338627 0 0 0
11977 2 19.078286288258212 7.864267293347017 4.086795033683207 0 0 0
337 1 1.7995835415099066 9.437295042409334 5.3647340822081135 0 0 0
12194 2 2.7094519666866645 11.007811327138509 4.081996507339143 0 0 0
12248 2 21.80635135114388 9.435998505212199 4.084586096534934 -1 0 0
278 1 4.527656152780772 11.009309224725781 5.362110849274956 0 0 0
12210 2 5.4376361468419665 9.435998505241702 4.084586094273902 0 0 0
277 1 7.255821942881966 9.437295043508016 5.364734086703615 0 0 0
12128 2 8.165690366878763 11.00781132572617 4.081996511174727 0 0 0
187 1 9.983894553180411 11.009309228512421 5.362110849138453 0 0 0
12127 2 10.893874547045453 9.43599850521298 4.08458609653543 0 0 0
110 1 15.440132956879696 11.009309224725536 5.362110849276572 0 0 0
204 1 12.712060345609446 9.437295042409957 5.36473408220907 0 0 0
12031 2 13.621928770785766 11.007811327138283 4.08199650733916 0 0 0
109 1 18.168298746980316 9.437295043507621 5.3647340867031925 0 0 0
12048 2 16.350112950940925 9.435998505242006 4.08458609427386 0 0 0
51 1 20.89637135727836 11.009309228511524 5.36211084913802 0 0 0
11976 2 19.07816717097748 11.007811325725235 4.08199651117507 0 0 0
328 1 1.7994816103817628 12.581411427464102 5.359112435187282 0 0 0
12193 2 2.7092876921313307 14.151733848411384 4.075718490030198 0 0 0
12249 2 21.806210113976483 12.579718835313784 4.079036667033016 -1 0 0
264 1 4.5275361230726 14.15361362304913 5.355750885492513 0 0 0
12192 2 5.437494906284477 12.579718830063204 4.079036668561717 0 0 0
280 1 7.255720010127794 12.581411429456894 5.359112436287318 0 0 0
12113 2 8.165526095067008 14.151733852210384 4.075718489074104 0 0 0
186 1 9.983774523721909 14.153613627428031 5.3557508820044 0 0 0
12130 2 10.8937333098778 12.579718835313928 4.079036667033282 0 0 0
95 1 15.440012927171617 14.15361362305008 5.355750885492802 0 0 0
185 1 12.711958414480984 12.581411427464223 5.359112435188188 0 0 0
12030 2 13.621764496230439 14.151733848411533 4.07571849002973 0 0 0
112 1 18.168196814225496 12.581411429455962 5.359112436287592 0 0 0
12029 2 16.349971710383297 12.57971883006321 4.0790366685620825 0 0 0
50 1 20.896251327820064 14.153613627428102 5.355750882003664 0 0 0
11962 2 19.078002899165796 14.151733852210047 4.075718489073917 0 0 0
329 1 1.7993422679780842 15.725927530718081 5.352039737227595 0 0 0
12183 2 2.7090744806729123 17.296136195924625 4.0680622047651385 0 0 0
12247 2 21.806021848580592 15.723868905454978 4.072055382634203 -1 0 0
263 1 4.527376220207567 17.29836456390729 5.3479940028817525 0 0 0
12195 2 5.437306642426559 15.723868906383087 4.07205538181727 0 0 0
262 1 7.255580668558582 15.7259275369837 5.352039735163765 0 0 0
12112 2 8.165312882680805 17.29613619696366 4.068062205970286 0 0 0
169 1 9.98361462149928 17.298364565314134 5.347994002932227 0 0 0
12111 2 10.893545044481959 15.72386890545527 4.072055382633812 0 0 0
94 1 15.439853024306316 17.298364563907082 5.3479940028808866 0 0 0
188 1 12.711819072077454 15.725927530718932 5.352039737227703 0 0 0
12013 2 13.621551284771176 17.296136195924266 4.0680622047652415 0 0 0
93 1 18.16805747265683 15.725927536984182 5.352039735162833 0 0 0
12032 2 16.34978344652531 15.723868906383084 4.072055381817219 0 0 0
36 1 20.896091425598527 17.298364565314323 5.34799400293134 0 0 0
11961 2 19.077789686779614 17.296136196963573 4.068062205969723 0 0 0
291 1 2.708091491490644 1.578462777800512 7.948750642512094 0 0 0
349 1 21.804926710863842 0.00636497180638025 7.948962398536589 -1 0 0
12201 2 1.7982071451145132 0.006364969366876954 9.23730659101676 0 0 0
12205 2 0.8898808011605632 1.578277326943169 6.663535267404273 0 0 0
290 1 5.436211502707602 0.006364972082566856 7.948962396557971 0 0 0
12121 2 4.526326715185062 1.578614725669803 9.23709386539753 0 0 0
12222 2 3.618002176404028 0.0063649739311156285 6.663744079927582 0 0 0
199 1 8.164329892956372 1.5784627771273287 7.948750643683835 0 0 0
12139 2 7.254445547202718 0.006364969511742704 9.237306591079253 0 0 0
12140 2 9.074240578940165 0.00636497531880904 6.663744079834099 0 0 0
12141 2 6.34611920330031 1.5782773282714238 6.663535267937351 0 0 0
216 1 10.892449906764949 0.0063649718070098 7.9489623985380495 0 0 0
12039 2 9.982565116645896 1.5786147246989972 9.237093866844882 0 0 0
12043 2 11.802357605260054 1.5782773269434842 6.663535267404774 0 0 0
122 1 13.620568295590173 1.5784627778007123 7.94875064251107 0 0 0
11970 2 15.438803519284633 1.5786147256703889 9.237093865396497 0 0 0
12038 2 12.710683949213061 0.00636496936698534 9.237306591017019 0 0 0
12059 2 14.53047898050302 0.00636497393121718 6.663744079926838 0 0 0
121 1 16.348688306807336 0.006364972082346789 7.948962396556483 0 0 0
11980 2 18.166922351302436 0.0063649695123194246 9.237306591077422 0 0 0
11982 2 17.25859600739858 1.5782773282707272 6.6635352679371165 0 0 0
57 1 19.076806697054945 1.5784627771265285 7.9487506436822 0 0 0
11928 2 20.895041920744433 1.5786147246986475 9.237093866844008 0 0 0
11981 2 19.986717383038787 0.0063649753182636135 6.6637440798334255 0 0 0
275 1 2.708084586271979 4.722702471678375 7.94706151964499 0 0 0
334 1 21.804923394509537 3.1505716078043515 7.948116196635973 -1 0 0
12202 2 1.7982085513894805 3.1508746507761227 9.236456503244217 0 0 0
12204 2 0.8898630616018632 4.722149689001144 6.661869659541468 0 0 0
292 1 5.43620818634532 3.1505716106367108 7.948116195022551 0 0 0
12120 2 4.526329240282482 4.723154896072782 9.235396959189053 0 0 0
12203 2 3.617993419906942 3.1502015998802295 6.662909642813259 0 0 0
198 1 8.16432298804289 4.7227024733278755 7.947061521811544 0 0 0
12119 2 7.254446952621868 3.1508746501624247 9.236456503029274 0 0 0
12125 2 6.346101464315017 4.722149692091129 6.661869659531196 0 0 0
12142 2 9.074231822858579 3.1502016017986985 6.662909642903103 0 0 0
197 1 10.89244659041077 3.1505716078046015 7.948116196636678 0 0 0
12023 2 9.98256764329036 4.723154897532319 9.235396957769936 0 0 0
12042 2 11.802339865700814 4.722149689001235 6.6618696595416065 0 0 0
107 1 13.620561390370419 4.722702471678451 7.947061519643667 0 0 0
11969 2 15.438806044381211 4.723154896072773 9.235396959188723 0 0 0
12040 2 12.710685355488577 3.150874650776144 9.236456503243401 0 0 0
12041 2 14.530470224004782 3.1502015998802078 6.662909642813119 0 0 0
123 1 16.348684990444085 3.15057161063677 7.948116195021259 0 0 0
11968 2 18.166923756720216 3.1508746501617244 9.23645650302834 0 0 0
11974 2 17.258578268414016 4.7221496920925565 6.66186965953032 0 0 0
56 1 19.076799792141497 4.722702473328171 7.947061521810659 0 0 0