LAMMPS data file via write_data, version 15 Sep 2022, timestep = 1809

48144 atoms
2 atom types

0 21.824953608198122 xlo xhi
0 302.4154281778626 ylo yhi
-4.8313254703411825 76.39617477500748 zlo zhi

Masses

1 180.948
2 12.011

Atoms # atomic

383 1 1.79575207433013 0.006331724654327266 -1.952411609860279 0 0 0
12657 2 0.8963028011798204 1.5780195675439996 -0.5098097451000243 0 0 0
12665 2 2.7116933835427295 1.5772827870691666 -3.0146463752840043 0 0 0
12672 2 21.80852589789389 0.006331722442826294 -3.0144155614869823 -1 0 0
370 1 4.5238726985858415 1.5775973851974285 -1.9526423600998177 0 0 0
12663 2 3.624419865130546 0.006331721385271803 -0.5095789918532708 0 0 0
12664 2 5.439810691719583 0.006331722883175321 -3.014415561334546 0 0 0
372 1 7.251990476233579 0.0063317248657688875 -1.9524116097364193 0 0 0
12623 2 9.080658266805548 0.006331722973673053 -0.5095789909252386 0 0 0
12624 2 6.35254120465135 1.578019567524315 -0.5098097464781383 0 0 0
12628 2 8.16793178525647 1.5772827866172745 -3.014646374303115 0 0 0
323 1 9.98011110041301 1.5775973849733516 -1.9526423598116387 0 0 0
12549 2 11.80877960533659 1.5780195675033275 -0.5098097450393079 0 0 0
12630 2 10.896049093824375 0.006331722400931233 -3.0144155614265786 0 0 0
238 1 15.4363495026336 1.5775973853533116 -1.9526423601204586 0 0 0
322 1 12.708228878438891 0.006331724557768241 -1.9524116098365456 0 0 0
12555 2 14.536896668983788 0.00633172137506115 -0.5095789918333444 0 0 0
12557 2 13.624170187595231 1.5772827870619488 -3.014646375280033 0 0 0
240 1 18.164467280589925 0.00633172489432103 -1.9524116098258795 0 0 0
12459 2 17.265018008625646 1.5780195675866817 -0.5098097464687483 0 0 0
12556 2 16.35228749579154 0.00633172286794801 -3.014415561185845 0 0 0
144 1 20.89258790469612 1.5775973850254532 -1.9526423598231497 0 0 0
12458 2 19.99313507087072 0.00633172291662983 -0.5095789909770814 0 0 0
12462 2 19.080408589318722 1.577282786652543 -3.014646374337755 0 0 0
384 1 1.7957577680667935 3.14886236968439 -1.9533346238023794 0 0 0
12656 2 0.8963199331198632 4.721392588318926 -0.5116558612286627 0 0 0
12661 2 2.71170855521123 4.719182071934207 -3.016492966763485 0 0 0
12670 2 21.80853347332388 3.148233140057785 -3.0153388286885536 -1 0 0
369 1 4.523884105196757 4.7201260028279215 -1.954488444623951 0 0 0
12655 2 3.6244284201613235 3.149706746837741 -0.5105020217582259 0 0 0
12666 2 5.439818266432177 3.148233139834246 -3.015338828189964 0 0 0
368 1 7.251996169981045 3.1488623696337865 -1.9533346235846865 0 0 0
12616 2 6.352558335835181 4.721392587971213 -0.511655860667994 0 0 0
12625 2 9.080666821985734 3.1497067459250325 -0.5105020217302639 0 0 0
12627 2 8.167946957351846 4.719182072566426 -3.016492966493475 0 0 0
319 1 9.980122507294727 4.720126003355128 -1.9544884445135167 0 0 0
12548 2 11.808796737303123 4.721392588387089 -0.5116558613378771 0 0 0
12626 2 10.896056669302947 3.1482331401073633 -3.0153388284931175 0 0 0
237 1 15.436360909404046 4.720126002921511 -1.9544884445970157 0 0 0
324 1 12.70823457226393 3.148862369812022 -1.9533346238359883 0 0 0
12547 2 14.536905224373765 3.149706746810227 -0.5105020217253766 0 0 0
12553 2 13.624185359345175 4.719182072001508 -3.016492966808273 0 0 0
236 1 18.16447297417189 3.148862369847831 -1.953334623583256 0 0 0
12453 2 17.265035139931243 4.72139258803492 -0.5116558606944969 0 0 0
12558 2 16.3522950705589 3.1482331398196264 -3.015338828174082 0 0 0
143 1 20.892599311256 4.720126003155481 -1.9544884445010822 0 0 0
12460 2 19.99314362595397 3.1497067460085413 -0.5105020217708987 0 0 0
12461 2 19.08042376145523 4.719182072563919 -3.016492966652705 0 0 0
380 1 1.7957749312383942 6.291387608543498 -1.956103894707913 0 0 0
12646 2 0.8963543979270288 7.86475758083925 -0.5153485518882004 0 0 0
12660 2 2.711739084111312 7.861072822525221 -3.020186608926169 0 0 0
12671 2 21.808556287204357 6.290128871032546 -3.0181088589030103 -1 0 0
362 1 4.523907089303077 7.862646507093471 -1.958181074416708 0 0 0
12658 2 3.6244541808117967 6.293076424668373 -0.5132713390072308 0 0 0
12659 2 5.439841081016039 6.2901288709665435 -3.018108859323949 0 0 0
371 1 7.2520133335063885 6.291387608190185 -1.9561038946275708 0 0 0
12614 2 9.08069258300576 6.293076424222534 -0.513271338821267 0 0 0
12615 2 6.352592799800656 7.8647575803673 -0.5153485514384588 0 0 0
12620 2 8.167977486281227 7.8610728224353865 -3.020186609227791 0 0 0
318 1 9.980145491765052 7.862646506780431 -1.9581810744211856 0 0 0
12537 2 11.808831202062562 7.864757580814624 -0.5153485518884166 0 0 0
12629 2 10.896079483202259 6.290128871054628 -3.0181088589428025 0 0 0
230 1 15.436383893425244 7.862646506725311 -1.9581810744304586 0 0 0
317 1 12.70825173529884 6.291387608474713 -1.9561038946755462 0 0 0
12550 2 14.5369309850029 6.293076424625481 -0.5132713391029929 0 0 0
12552 2 13.62421588823458 7.861072822458429 -3.0201866089506875 0 0 0
239 1 18.164490137455378 6.2913876079475655 -1.9561038946271123 0 0 0
12452 2 17.265069603813444 7.864757580243026 -0.515348551522459 0 0 0
12551 2 16.352317885049303 6.290128870914604 -3.018108859474746 0 0 0
142 1 20.89262229592011 7.862646506806633 -1.9581810744904038 0 0 0
12451 2 19.993169386900842 6.293076424202992 -0.5132713389011533 0 0 0
12456 2 19.080454290333687 7.86107282233465 -3.0201866091245093 0 0 0
381 1 1.7958038275038608 9.433902019845508 -1.9607201151076643 0 0 0
12645 2 0.8964065914015581 11.008109167354322 -0.5208887477397562 0 0 0
12650 2 2.7117853585860225 11.002949314937995 -3.0257282445739584 0 0 0
12668 2 21.80859462890969 9.432013211259497 -3.0227263511383615 -1 0 0
361 1 4.52394200967588 11.00515346364994 -1.9637211770381648 0 0 0
12644 2 3.6244974466574567 9.436435385988458 -0.5178876341391757 0 0 0
12662 2 5.43987942265679 9.432013211540136 -3.0227263511303204 0 0 0
360 1 7.252042229405883 9.43390202022201 -1.9607201151052525 0 0 0
12601 2 6.352644993520898 11.008109167377183 -0.5208887477678906 0 0 0
12617 2 9.08073584870555 9.436435386486448 -0.5178876339768033 0 0 0
12619 2 8.16802376068294 11.002949315228523 -3.025728244226361 0 0 0
307 1 9.980180411482316 11.005153463813446 -1.9637211771035583 0 0 0
12536 2 11.808883395417126 11.008109167463836 -0.5208887476466754 0 0 0
12618 2 10.896117824779585 9.432013211194969 -3.0227263512771363 0 0 0
229 1 15.436418813915951 11.00515346357864 -1.963721177130688 0 0 0
320 1 12.70828063139675 9.433902019599213 -1.960720115089813 0 0 0
12535 2 14.536974250691697 9.436435385888062 -0.5178876340636258 0 0 0
12541 2 13.624262162722337 11.002949314812687 -3.0257282445689104 0 0 0
228 1 18.16451903362608 9.433902020190404 -1.9607201152078368 0 0 0
12439 2 17.265121797660587 11.008109167382816 -0.5208887478918611 0 0 0
12554 2 16.352356226751443 9.432013211433338 -3.0227263511542533 0 0 0
135 1 20.892657215680718 11.005153463945959 -1.9637211771078553 0 0 0
12454 2 19.993212652839276 9.4364353863953 -0.5178876340637475 0 0 0
12455 2 19.080500564695846 11.002949315195703 -3.0257282440918813 0 0 0
376 1 1.7958449057662496 12.576400152273736 -1.9671844525758913 0 0 0
12638 2 0.8964771209494083 14.151441933297509 -0.5282778576978959 0 0 0
12649 2 2.711847960334072 14.144805771949729 -3.033119288738449 0 0 0
12669 2 21.80864898176342 12.573880410992931 -3.029192481141188 -1 0 0
348 1 4.523989406583307 14.147641397138289 -1.9711101651510954 0 0 0
12647 2 3.624558719604801 12.579778243665062 -0.5243520796864745 0 0 0
12648 2 5.439933775742576 12.573880410953276 -3.029192481775866 0 0 0
363 1 7.252083308185637 12.576400152056955 -1.9671844526988387 0 0 0
12599 2 9.080797121457842 12.579778244130324 -0.5243520818219904 0 0 0
12600 2 6.35271552372113 14.151441933927341 -0.5282778580673465 0 0 0
12605 2 8.168086362245662 14.144805771479952 -3.033119288087013 0 0 0
306 1 9.980227808520578 14.147641396842344 -1.9711101651359568 0 0 0
12521 2 11.808953924962166 14.151441933122861 -0.5282778577288942 0 0 0
12621 2 10.896172177523301 12.57388041087145 -3.029192481237546 0 0 0
215 1 15.436466210851657 14.147641397425682 -1.9711101651620502 0 0 0
305 1 12.708321709662693 12.57640015221977 -1.967184452635226 0 0 0
12538 2 14.537035523632651 12.579778243739016 -0.5243520795913281 0 0 0
12540 2 13.624324764451549 14.144805771889802 -3.0331192885817604 0 0 0
231 1 18.164560112411074 12.576400152329304 -1.9671844526600197 0 0 0
12438 2 17.265192327788547 14.151441933816352 -0.528277858037368 0 0 0
12539 2 16.35241057986661 12.573880410846197 -3.029192481699134 0 0 0
134 1 20.892704612516887 14.147641397088329 -1.9711101650188398 0 0 0
12437 2 19.993273925405198 12.579778243934326 -0.5243520814583351 0 0 0
12442 2 19.080563166414727 14.144805771620971 -3.0331192882642486 0 0 0
377 1 1.7958988059943646 15.718876508625891 -1.9754985701687138 0 0 0
12637 2 0.8965668018111073 17.294750408316645 -0.5375177995260749 0 0 0
12639 2 2.711927678717163 17.286636355876496 -3.0423616714532953 0 0 0
12667 2 21.80872002946105 15.715724665868457 -3.037508921693958 -1 0 0
347 1 4.524050019397284 17.290104793293757 -1.9803499573285337 0 0 0
12636 2 3.6246387079596074 15.723099551272947 -0.5326663337433518 0 0 0
12651 2 5.440004823075418 15.715724665408215 -3.0375089215974733 0 0 0
346 1 7.252137208220817 15.718876508478289 -1.9754985701267906 0 0 0
12583 2 6.352805203817873 17.294750408048255 -0.5375177992716578 0 0 0
12602 2 9.080877109919626 15.723099550844797 -0.5326663334908449 0 0 0
12604 2 8.168166080487254 17.286636355737453 -3.042361672408596 0 0 0
288 1 9.980288421616997 17.290104793145378 -1.9803499572380463 0 0 0
12520 2 11.809043605845499 17.294750408310044 -0.537517799628379 0 0 0
12603 2 10.89624322538421 15.71572466588719 -3.03750892164841 0 0 0
214 1 15.43652682344012 17.290104793281188 -1.9803499572642616 0 0 0
308 1 12.708375610189226 15.71887650874769 -1.9754985702579047 0 0 0
12519 2 14.53711551214914 15.723099551309517 -0.5326663339157006 0 0 0
12522 2 13.624404482830178 17.28663635590246 -3.0423616715136585 0 0 0
213 1 18.164614012351354 15.718876508483971 -1.9754985699864531 0 0 0
12420 2 17.26528200785174 17.29475040792278 -0.5375177993443718 0 0 0
12542 2 16.352481627290793 15.715724665471338 -3.0375089216026514 0 0 0
119 1 20.892765225598033 17.29010479304136 -1.9803499571461851 0 0 0
12440 2 19.993353914090445 15.723099550841233 -0.5326663335049844 0 0 0
12441 2 19.08064288460178 17.286636355729897 -3.0423616723986924 0 0 0
354 1 0.8947572840611157 1.5791480214722553 3.309007489883846 0 0 0
366 1 2.7134117989972197 1.578379528326767 0.7124475821520546 0 0 0
382 1 21.810244198983636 0.006331722847981251 0.7126783567577679 -1 0 0
12653 2 1.8048102398461363 0.006331724171929417 2.0436885978061814 0 0 0
364 1 3.6228745036895766 0.006331723905719202 3.309238240724725 0 0 0
365 1 5.44152899324905 0.006331722643309523 0.7126783568357604 0 0 0
12612 2 4.532931490154479 1.5787742693188629 2.0434578571631863 0 0 0
310 1 9.079112905947795 0.006331724148621457 3.309238240603105 0 0 0
311 1 6.350995686011012 1.5791480216669276 3.309007490100543 0 0 0
315 1 8.169650201539879 1.578379527993128 0.7124475812955993 0 0 0
12622 2 7.261048642320551 0.006331723105484201 2.0436885971577157 0 0 0
222 1 11.807234088146588 1.5791480213605595 3.309007489793574 0 0 0
321 1 10.897767395002106 0.006331722875020734 0.7126783566227702 0 0 0
12545 2 9.98916989318546 1.5787742684602284 2.043457855653748 0 0 0
232 1 14.535351307810243 0.006331723987931937 3.3092382406697576 0 0 0
234 1 13.62588860313493 1.5783795284592015 0.7124475822405152 0 0 0
12449 2 15.445408294174902 1.5787742693058944 2.0434578572090683 0 0 0
12544 2 12.7172870440095 0.006331724281734643 2.043688597856938 0 0 0
138 1 17.263472489870125 1.579148021625862 3.3090074898683497 0 0 0
233 1 16.354005796985206 0.006331722565066109 0.7126783566528135 0 0 0
12457 2 18.17352544615364 0.006331723036811711 2.043688597212712 0 0 0
137 1 19.991589709642057 0.006331724101638568 3.3092382405412644 0 0 0
141 1 19.08212700545883 1.5783795279028203 0.712447581192665 0 0 0
12372 2 20.90164669724686 1.578774268397268 2.0434578556597605 0 0 0
353 1 0.8947731757952472 4.724778269177657 3.307161403265708 0 0 0
358 1 2.7134279011074995 4.722472575518923 0.7106013000485832 0 0 0
378 1 21.810252236962945 3.1504266930698335 0.7117552436269574 -1 0 0
12654 2 1.8048184432169614 3.1512161992765635 2.042765616025322 0 0 0
352 1 3.6228824367135775 3.1519637314510924 3.3083152246039385 0 0 0
367 1 5.4415370307117215 3.1504266934747016 0.7117552439226946 0 0 0
12611 2 4.532947922410613 4.723656902607208 2.0416118357497655 0 0 0
299 1 6.351011578026194 4.7247782685256645 3.3071614032616004 0 0 0
312 1 9.079120838652974 3.1519637321227427 3.3083152247625396 0 0 0
314 1 8.16966630306535 4.722472575765897 0.7106013002546814 0 0 0
12610 2 7.261056844492007 3.151216200631792 2.042765616352721 0 0 0
221 1 11.80724998009224 4.724778268917972 3.3071614032715653 0 0 0
313 1 10.897775432970697 3.1504266929547384 0.7117552436007349 0 0 0
12533 2 9.989186323767514 4.7236569036061375 2.041611836184602 0 0 0
220 1 14.535359240900608 3.1519637315691247 3.3083152247692427 0 0 0
226 1 13.62590470541608 4.722472575450349 0.7106013000978532 0 0 0
12448 2 15.445424726581672 4.72365690266821 2.041611835672137 0 0 0
12546 2 12.717295247403122 3.1512161992274352 2.042765616155584 0 0 0
130 1 17.263488382215424 4.7247782684882855 3.307161403206262 0 0 0
235 1 16.354013834923645 3.1504266934469176 0.7117552438716324 0 0 0
12447 2 18.173533648610217 3.1512162007001145 2.042765616229095 0 0 0
139 1 19.991597642883832 3.1519637317062363 3.3083152247438314 0 0 0
140 1 19.082143107118437 4.72247257572408 0.7106013002420762 0 0 0
12371 2 20.901663127862246 4.723656903590817 2.041611836088381 0 0 0
340 1 0.8948051590387379 7.870401473163722 3.303468773626823 0 0 0
357 1 2.713460305786934 7.866557921664481 0.7069082767047484 0 0 0
379 1 21.81027645267418 6.2945165332551705 0.7089856779483691 -1 0 0
12642 2 1.804843151883639 6.296095763343252 2.039996443142835 0 0 0
355 1 3.6229063375618766 6.297591044738454 3.3055459553327013 0 0 0
356 1 5.441561246897543 6.2945165330811035 0.7089856781274463 0 0 0
12597 2 4.53298098071997 7.868532162918799 2.037919336295491 0 0 0
297 1 9.079144739896403 6.297591044536591 3.3055459548284807 0 0 0
298 1 6.351043561156092 7.870401473439122 3.303468773850845 0 0 0
303 1 8.169698707979697 7.866557921720475 0.7069082763818704 0 0 0
12613 2 7.261081554372686 6.296095762820532 2.039996441887476 0 0 0
207 1 11.807281963190608 7.870401473325637 3.303468773532094 0 0 0
316 1 10.897799648802726 6.294516533093016 0.7089856780486089 0 0 0
12532 2 9.98921938273972 7.868532162752883 2.037919335087174 0 0 0
223 1 14.535383141573783 6.297591044813464 3.305545955042716 0 0 0
225 1 13.625937110002667 7.866557921614029 0.7069082764230636 0 0 0
12435 2 15.445457784737677 7.868532163038944 2.0379193361249746 0 0 0
12531 2 12.717319956029218 6.296095763366403 2.0399964431053426 0 0 0
129 1 17.26352036483852 7.8704014734891565 3.303468773761041 0 0 0
224 1 16.354038051033747 6.294516532967693 0.7089856781072698 0 0 0
12450 2 18.173558358303936 6.296095762837357 2.039996441830741 0 0 0
128 1 19.991621543679315 6.297591044310134 3.305545954770595 0 0 0
133 1 19.08217551186878 7.866557921633367 0.7069082763123347 0 0 0
12370 2 20.90169618687124 7.8685321625962805 2.0379193351906326 0 0 0
339 1 0.8948536172358337 11.016012924774417 3.2979286786085975 0 0 0
344 1 2.713509397460291 11.010630414139852 0.7013675853719078 0 0 0
374 1 21.810317140903287 9.43859609749638 0.7043689653123231 -1 0 0
12643 2 1.804884660218858 9.440965485689587 2.035380385796698 0 0 0
338 1 3.6229464980686488 9.443208962760947 3.30092973490288 0 0 0
359 1 5.441601934748059 9.438596097418717 0.7043689651652857 0 0 0
12596 2 4.533031059708098 11.013395115471885 2.032379430898041 0 0 0
283 1 6.351092019473179 11.016012924650493 3.297928678242964 0 0 0
300 1 9.079184899707109 9.443208963220675 3.3009297349707967 0 0 0
302 1 8.169747799221316 11.010630414134601 0.7013675854283794 0 0 0
12595 2 7.261123062474219 9.440965485937003 2.0353803861939013 0 0 0
206 1 11.807330421419753 11.016012924793946 3.2979286786288444 0 0 0
301 1 10.897840336777376 9.438596097462893 0.7043689652115658 0 0 0
12517 2 9.9892694623736 11.013395114806416 2.0323794325094053 0 0 0
205 1 14.535423301683663 9.443208962780341 3.300929734757045 0 0 0
211 1 13.625986201445066 11.01063041409158 0.7013675851727053 0 0 0
12434 2 15.44550786367763 11.013395115340765 2.0323794309538386 0 0 0
12534 2 12.717361464245855 9.440965485857387 2.0353803856290322 0 0 0
115 1 17.2635688236012 11.016012924482826 3.2979286784700768 0 0 0
227 1 16.35407873869996 9.438596097416996 0.7043689651761993 0 0 0
12433 2 18.173599866411937 9.440965485857127 2.0353803864139435 0 0 0
131 1 19.99166170376506 9.443208963048555 3.300929734891504 0 0 0
132 1 19.082224603269346 11.01063041400504 0.7013675855026316 0 0 0
12363 2 20.901746266379803 11.013395115023584 2.032379432475084 0 0 0
332 1 0.8949191404474 14.161607893723843 3.2905397178983637 0 0 0
343 1 2.713575773308844 14.154684870253917 0.6939778210738328 0 0 0
375 1 21.81037478582786 12.582660221981909 0.697903944997993 -1 0 0
12634 2 1.8049434584742166 12.58582042522914 2.028916283265335 0 0 0
341 1 3.623003401329526 12.588812765256574 3.294465412663504 0 0 0
342 1 5.4416595793273945 12.58266022193167 0.6979039449670191 0 0 0
12582 2 4.533098755602276 14.158240798679461 2.024990716192274 0 0 0
281 1 9.079241803716036 12.588812764906367 3.2944654125953363 0 0 0
282 1 6.3511575422311735 14.161607893921584 3.2905397175201867 0 0 0
287 1 8.169814175183058 14.154684870667795 0.6939778208930328 0 0 0
12598 2 7.261181860136657 12.58582042545568 2.028916283231602 0 0 0
191 1 11.807395944307293 14.161607893679895 3.2905397178512406 0 0 0
304 1 10.897897981891088 12.582660221965119 0.6979039451315365 0 0 0
12516 2 9.98933715776636 14.158240798624647 2.024990716374432 0 0 0
208 1 14.535480205498637 12.588812765188699 3.2944654125934343 0 0 0
210 1 13.626052577419951 14.154684870174684 0.6939778209759436 0 0 0
12419 2 15.44557555978505 14.158240798552466 2.024990716266241 0 0 0
12515 2 12.717420262560106 12.585820425168851 2.0289162831058833 0 0 0
114 1 17.263634346470507 14.161607893999621 3.290539717673565 0 0 0
209 1 16.354136383374886 12.582660221684897 0.6979039450521572 0 0 0
12436 2 18.173658664407224 12.585820425473937 2.028916283140341 0 0 0
113 1 19.991718607892828 12.588812765176767 3.294465412507089 0 0 0
118 1 19.08229097927166 14.154684870433721 0.693977821018795 0 0 0
12362 2 20.901813961834915 14.158240798486803 2.024990716306058 0 0 0
331 1 0.8950025274859996 17.307181636284458 3.2812999892315244 0 0 0
333 1 2.7136602358003175 17.298716064796736 0.6847370707761873 0 0 0
373 1 21.810450093294982 15.726703703091856 0.689588959861169 -1 0 0
12635 2 1.8050202491788958 15.730655606378606 2.0206024780383447 0 0 0
330 1 3.6230777441969226 15.734397717075254 3.286151338263834 0 0 0
345 1 5.441734887018126 15.72670370334566 0.6895889598698027 0 0 0
12581 2 4.533184870708745 17.30306422081973 2.0157512774719626 0 0 0
265 1 6.351240929605229 17.307181636332924 3.281299989267842 0 0 0
284 1 9.079316146156895 15.734397716667418 3.286151338257753 0 0 0
286 1 8.169898637998548 17.298716064948195 0.6847370705873186 0 0 0
12580 2 7.261258650696015 15.73065560556198 2.020602477985361 0 0 0
190 1 11.807479331664053 17.307181636325875 3.2812999892622625 0 0 0
285 1 10.897973289089725 15.726703703063679 0.6895889599003385 0 0 0
12498 2 9.989423273184538 17.30306422159964 2.0157512769415935 0 0 0
189 1 14.535554548430207 15.734397716788399 3.2861513382085903 0 0 0
192 1 13.626137039769576 17.298716064679716 0.684737070857157 0 0 0
12418 2 15.445661674772563 17.3030642208105 2.015751277406731 0 0 0
12518 2 12.717497053140088 15.730655606375272 2.020602478101655 0 0 0
96 1 17.263717733669804 17.307181636403055 3.281299989085057 0 0 0
212 1 16.354211691234 15.726703703218847 0.6895889598560304 0 0 0
12417 2 18.17373545493001 15.730655605546591 2.020602477981881 0 0 0
116 1 19.991792950315403 15.734397716560798 3.2861513383496805 0 0 0
117 1 19.08237544208849 17.29871606497155 0.6847370704777133 0 0 0
12347 2 20.901900077273698 17.303064221558245 2.01575127688943 0 0 0
350 1 1.8036581843606112 0.006331726058229955 5.889809072246576 0 0 0
12608 2 2.7134483296442293 1.579534775957927 4.609610691757182 0 0 0
12652 2 21.810280786369457 0.0063317242643044 4.609841439671867 -1 0 0
295 1 4.531779275967324 1.579914133630083 5.88957833043538 0 0 0
12607 2 5.441565580518876 0.006331724357018673 4.6098414396895295 0 0 0
309 1 7.259896586542402 0.006331726100058151 5.889809072131113 0 0 0
12529 2 8.169686731521434 1.5795347760005383 4.609610692547605 0 0 0
218 1 9.988017678036456 1.5799141336528664 5.889578330144338 0 0 0
12543 2 10.897803982389807 0.006331724121590754 4.609841439770172 0 0 0
126 1 15.4442560801547 1.5799141336054936 5.88957833030873 0 0 0
217 1 12.716134988391754 0.006331725893276705 5.88980907185134 0 0 0
12445 2 13.625925133800902 1.5795347759912965 4.609610691561255 0 0 0
136 1 18.172373390498045 0.006331726271299035 5.889809071839047 0 0 0
12444 2 16.354042384740353 0.006331724385000666 4.609841439474282 0 0 0
60 1 20.90049448211913 1.5799141332076683 5.889578330093859 0 0 0
12369 2 19.082163535580143 1.579534775900579 4.60961069252295 0 0 0
351 1 1.8036657527567588 3.153496010190869 5.888886096247623 0 0 0
12593 2 2.7134639599953694 4.725938642516549 4.6077646420131995 0 0 0
12640 2 21.810288589326802 3.152737268310095 4.608918440984798 -1 0 0
294 1 4.53179443986629 4.727076828534237 5.887732322841228 0 0 0
12609 2 5.441573383163147 3.152737267677672 4.608918440501049 0 0 0
293 1 7.259904155029089 3.1534960099730682 5.88888609653813 0 0 0
12528 2 8.169702362646952 4.7259386413460645 4.60776464169981 0 0 0
203 1 9.988032842162331 4.727076828360524 5.887732323063435 0 0 0
12527 2 10.89781178524334 3.152737268404634 4.6089184409930954 0 0 0
125 1 15.444271243750181 4.727076828777754 5.887732322732932 0 0 0
219 1 12.716142556893038 3.153496010012637 5.888886096360839 0 0 0
12431 2 13.625940764100903 4.7259386426647065 4.6077646420794744 0 0 0
124 1 18.172380959055833 3.1534960102161835 5.888886096402589 0 0 0
12446 2 16.354050187220416 3.152737267682475 4.608918440492619 0 0 0
59 1 20.900509646224165 4.727076828128639 5.887732323181282 0 0 0
12368 2 19.08217916673114 4.725938641416465 4.607764641740742 0 0 0
336 1 1.8036885610892444 6.3006560558152165 5.88611694041828 0 0 0
12592 2 2.7134954135991975 7.872335810583413 4.604072081879766 0 0 0
12641 2 21.810312096664514 6.299138342281002 4.606149222553564 -1 0 0
279 1 4.531824960456037 7.874233164202144 5.884039850950137 0 0 0
12591 2 5.441596889157287 6.299138343756098 4.606149222796585 0 0 0
296 1 7.259926963396275 6.300656056127061 5.886116940685813 0 0 0
12513 2 8.169733814531075 7.872335812209416 4.604072083609799 0 0 0
202 1 9.988063362217595 7.874233164159595 5.8840398514154915 0 0 0
12530 2 10.897835292659137 6.299138342341824 4.606149222530955 0 0 0
111 1 15.444301764376144 7.874233164028459 5.884039850712994 0 0 0
201 1 12.716165365234094 6.300656055930208 5.886116940190152 0 0 0
12430 2 13.625972217514471 7.872335810686734 4.604072081990839 0 0 0
127 1 18.172403767455435 6.300656056117177 5.886116940749612 0 0 0
12429 2 16.354073693234604 6.29913834371768 4.606149222807551 0 0 0
58 1 20.90054016615283 7.874233164162683 5.884039851270347 0 0 0
12361 2 19.082210618592875 7.872335812264196 4.604072083401215 0 0 0
337 1 1.8037268873863024 9.4478076201847 5.881500922962701 0 0 0
12578 2 2.713543072210652 11.018721801315461 4.598532094243461 0 0 0
12632 2 21.8103515919337 9.445530484738107 4.601533094442879 -1 0 0
278 1 4.531871214272592 11.021378892392041 5.87849999791732 0 0 0
12594 2 5.441636386634027 9.445530482582363 4.601533094466051 0 0 0
277 1 7.2599652896344375 9.447807620154935 5.881500923218651 0 0 0
12512 2 8.169781475318468 11.0187218000412 4.598532093385745 0 0 0
187 1 9.988109616363127 11.021378891934456 5.8784999976064345 0 0 0
12511 2 10.897874787904328 9.445530484719507 4.601533094341879 0 0 0
110 1 15.44434801839319 11.021378892009611 5.878499997848406 0 0 0
204 1 12.716203691306559 9.447807620630822 5.881500923019502 0 0 0
12415 2 13.626019876293451 11.018721801397524 4.598532094190153 0 0 0
109 1 18.172442093889675 9.447807619910611 5.881500923106898 0 0 0
12432 2 16.354113190765982 9.44553048264875 4.6015330943922965 0 0 0
51 1 20.9005864204803 11.021378891999069 5.878499997509567 0 0 0
12360 2 19.082258279396285 11.0187217999068 4.598532093382664 0 0 0
328 1 1.8037812133374231 12.594946448095168 5.875036883866046 0 0 0
12577 2 2.713607521435229 14.165092119724461 4.591143268699059 0 0 0
12633 2 21.810407562664665 12.59190920018814 4.595068892131602 -1 0 0
264 1 4.531933778702509 14.168509757117103 5.871111363067552 0 0 0
12576 2 5.44169235583715 12.591909201064867 4.595068892931853 0 0 0
280 1 7.2600196153423 12.594946448574472 5.875036883955513 0 0 0
12497 2 8.16984592342043 14.165092120841281 4.591143268651807 0 0 0
186 1 9.988172180632638 14.168509757464212 5.8711113629302725 0 0 0
12514 2 10.897930758408856 12.591909200069205 4.595068892126675 0 0 0
95 1 15.444410582697666 14.168509756978063 5.871111363153693 0 0 0
185 1 12.716258017481339 12.594946448505686 5.87503688401078 0 0 0
12414 2 13.626084325634979 14.165092119800867 4.5911432686485885 0 0 0
112 1 18.17249641917126 12.594946448372644 5.875036883956331 0 0 0
12413 2 16.354169159813626 12.59190920119163 4.595068892926997 0 0 0
50 1 20.900648984608175 14.168509757505188 5.871111363105607 0 0 0
12346 2 19.08232272744988 14.165092120890051 4.59114326870731 0 0 0
329 1 1.8038522115216258 15.742068283496987 5.866723182876509 0 0 0
12567 2 2.713689552972989 17.31144226021549 4.581903699048434 0 0 0
12631 2 21.81048069083873 15.738269994522513 4.5867549652096375 -1 0 0
263 1 4.532013434700231 17.315621494669603 5.861872055930941 0 0 0
12579 2 5.441765484912526 15.738269994386508 4.5867549646690495 0 0 0
262 1 7.2600906135797825 15.7420682831345 5.866723182679446 0 0 0
12496 2 8.16992795492597 17.31144226006747 4.581903698828024 0 0 0
169 1 9.988251836571523 17.315621494806514 5.861872055914394 0 0 0
12495 2 10.898003886621522 15.738269994655507 4.586754965084698 0 0 0
94 1 15.444490238691433 17.31562149446633 5.861872055889724 0 0 0
188 1 12.716329015428416 15.742068283490221 5.866723182878455 0 0 0
12397 2 13.626166357063692 17.311442260051003 4.581903698960373 0 0 0
93 1 18.17256741753195 15.742068283299083 5.86672318279612 0 0 0
12416 2 16.354242288943443 15.73826999421713 4.5867549646697094 0 0 0
36 1 20.90072864092021 17.315621494695595 5.861872055887169 0 0 0
12345 2 19.082404759111522 17.31144226004671 4.581903698744527 0 0 0
291 1 2.7126710243746053 1.5806803211642537 8.46475901298963 0 0 0
349 1 21.809503643236063 0.006331726911809008 8.464989768173414 -1 0 0
12585 2 1.8033025297521716 0.0063317275656454425 9.751990142523818 0 0 0
12589 2 0.8941971692532495 1.5802984493166476 7.180082502617873 0 0 0
290 1 5.440788437011731 0.0063317265350267896 8.464989768459821 0 0 0
12505 2 4.531423467725291 1.5810641215774714 9.751759348574645 0 0 0
12606 2 3.6223145270315555 0.0063317262404296824 7.180313266108069 0 0 0
199 1 8.168909426718146 1.5806803209185663 8.46475901263372 0 0 0
12523 2 7.259540931941922 0.006331726456987539 9.751990142717421 0 0 0
12524 2 9.078552929418352 0.0063317267560104255 7.180313265450392 0 0 0
12525 2 6.35043557161687 1.580298449322394 7.180082502077175 0 0 0
216 1 10.897026839429515 0.006331726721824654 8.464989767840173 0 0 0
12423 2 9.987661870504997 1.5810641206781628 9.751759348242429 0 0 0
12427 2 11.806673973351069 1.5802984493571022 7.180082502678645 0 0 0
122 1 13.625147828510723 1.5806803212875629 8.464759012767026 0 0 0
12354 2 15.443900271918793 1.5810641216541759 9.751759348501809 0 0 0
12422 2 12.715779333956004 0.0063317274661620826 9.751990142491099 0 0 0
12443 2 14.534791331086076 0.006331726179432278 7.180313266105439 0 0 0
121 1 16.35326524132259 0.00633172643650628 8.464989768166852 0 0 0
12364 2 18.172017736087522 0.006331726519843845 9.751990142679276 0 0 0
12366 2 17.262912375796642 1.5802984495183467 7.180082502115365 0 0 0
57 1 19.08138623066579 1.5806803211460672 8.464759012514218 0 0 0
12312 2 20.900138674559887 1.5810641207555902 9.751759348263475 0 0 0
12365 2 19.991029733422298 0.006331726736222325 7.180313265468515 0 0 0
275 1 2.7126853538143028 4.729375619487968 8.462912900644223 0 0 0
334 1 21.80951079804442 3.1550284436768194 8.464066737953425 -1 0 0
12586 2 1.8033094880805345 3.155796070112216 9.751066957362875 0 0 0
12588 2 0.8942119674002559 4.728229885352283 7.178236323547919 0 0 0
292 1 5.440795591714663 3.1550284441585106 8.464066738147501 0 0 0
12504 2 4.5314374066394265 4.730527128057304 9.749912926741102 0 0 0
12587 2 3.6223219125042663 3.154264667965467 7.179390202894923 0 0 0
198 1 8.168923755717584 4.729375619840994 8.462912900751922 0 0 0
12503 2 7.25954788935705 3.155796070978451 9.751066958347735 0 0 0
12509 2 6.350450369898529 4.72822988590174 7.178236324147005 0 0 0
12526 2 9.078560315047556 3.154264668035068 7.179390202385837 0 0 0
197 1 10.897033993919925 3.155028444065894 8.464066737932281 0 0 0
12407 2 9.987675807841024 4.730527129049435 9.749912926577922 0 0 0
12426 2 11.80668877149006 4.728229885340304 7.17823632355342 0 0 0
107 1 13.625162157834456 4.729375619574667 8.462912900662293 0 0 0
12353 2 15.443914210628595 4.730527127975862 9.749912926643807 0 0 0
12424 2 12.715786292246792 3.1557960702234915 9.751066957350302 0 0 0
12425 2 14.53479871656865 3.1542646682198803 7.179390202993405 0 0 0
123 1 16.353272395601916 3.1550284441377445 8.464066738138134 0 0 0
12352 2 18.1720246933938 3.1557960710585737 9.751066958182603 0 0 0
12358 2 17.26292717396175 4.728229886010096 7.178236324135389 0 0 0
56 1 19.08140055971737 4.729375619824115 8.462912900639877 0 0 0
12311 2 20.900152611941632 4.730527128983861 9.74991292671039 0 0 0